                               Psi4 1.4a2.dev224

  ==> Input File <==

--------------------------------------------------------------------------
#Generated by lconvert.py for sapt job

memory 20 GB

molecule  {
0 1
  C       1.175590   -0.145800    0.231610
  S      -0.147760    0.408100   -0.884360
  H      -0.442200    1.535650   -0.231010
  H       0.791450   -0.327970    1.229660
  H       1.542170   -1.081880   -0.179480
  H       1.988250    0.572530    0.252180
--
0 1
  O      -3.368830   -2.556790    2.762670
  H      -3.278850   -2.118080    1.908520
  H      -4.252490   -2.927920    2.738140
units angstrom
no_reorient
symmetry c1
}

set {
scf_type DF
basis aug-cc-pvdz
freeze_core True
guess SAD
}
energy('sapt2+')
--------------------------------------------------------------------------

  //              Dimer HF             //
    Molecular point group: c1
  Charge       = 0
  Multiplicity = 1
  Basis Set: AUG-CC-PVDZ
    Blend: AUG-CC-PVDZ
  Basis Set: (AUG-CC-PVDZ AUX)
    Blend: AUG-CC-PVDZ-JKFIT
  @DF-RHF Final Energy:  -513.77214479985957
    Total Energy =                       -513.7721447998595750
  //            Monomer A HF           //
    Molecular point group: c1
  Multiplicity = 1
  Basis Set: AUG-CC-PVDZ
    Blend: AUG-CC-PVDZ
  Basis Set: (AUG-CC-PVDZ AUX)
    Blend: AUG-CC-PVDZ-JKFIT
  @DF-RHF Final Energy:  -437.73023136368550
    Total Energy =                       -437.7302313636855047
  //            Monomer B HF           //
    Molecular point group: c1

    Geometry (in Angstrom), charge = 0, multiplicity = 1:

       Center              X                  Y                   Z               Mass
    ------------   -----------------  -----------------  -----------------  -----------------
      Gh(C)           1.905458703773     0.368926559681    -0.138856071368    12.000000000000
      Gh(S)           0.582108703773     0.922826559681    -1.254826071368    31.972071174400
      Gh(H)           0.287668703773     2.050376559681    -0.601476071368     1.007825032230
      Gh(H)           1.521318703773     0.186756559681     0.859193928632     1.007825032230
      Gh(H)           2.272038703773    -0.567153440319    -0.549946071368     1.007825032230
      Gh(H)           2.718118703773     1.087256559681    -0.118286071368     1.007825032230
         O           -2.638961296227    -2.042063440319     2.392203928632    15.994914619570
         H           -2.548981296227    -1.603353440319     1.538053928632     1.007825032230
         H           -3.522621296227    -2.413193440319     2.367673928632     1.007825032230

  Charge       = 0
  Multiplicity = 1
  Basis Set: AUG-CC-PVDZ
    Blend: AUG-CC-PVDZ
  Basis Set: (AUG-CC-PVDZ AUX)
    Blend: AUG-CC-PVDZ-JKFIT

    Orbital Energies [Eh]
    ---------------------

    Doubly Occupied:

       1A    -20.578284     2A     -1.354885     3A     -0.715621
       4A     -0.586104     5A     -0.509261

  @DF-RHF Final Energy:   -76.04108744255042

   => Energetics <=

    Nuclear Repulsion Energy =              9.1546391274009338
    One-Electron Energy =                -122.9031440895895599
    Two-Electron Energy =                  37.7074175196382200
    Total Energy =                        -76.0410874425504062

  Dipole Moment: [D]
     X:    -1.3492      Y:     0.1135      Z:    -1.4905     Total:     2.0136

    SAPT Results
  --------------------------------------------------------------------------------------------------------
    Electrostatics                 -0.72957607 [mEh]      -0.45781590 [kcal/mol]      -1.91550172 [kJ/mol]
      Elst10,r                     -0.80619649 [mEh]      -0.50589594 [kcal/mol]      -2.11666860 [kJ/mol]
      Elst12,r                      0.07662042 [mEh]       0.04808004 [kcal/mol]       0.20116689 [kJ/mol]

    Exchange                        0.00548779 [mEh]       0.00344364 [kcal/mol]       0.01440819 [kJ/mol]
      Exch10                        0.00439744 [mEh]       0.00275944 [kcal/mol]       0.01154548 [kJ/mol]
      Exch10(S^2)                   0.00439741 [mEh]       0.00275942 [kcal/mol]       0.01154541 [kJ/mol]
      Exch11(S^2)                   0.00009503 [mEh]       0.00005963 [kcal/mol]       0.00024951 [kJ/mol]
      Exch12(S^2)                   0.00099532 [mEh]       0.00062457 [kcal/mol]       0.00261320 [kJ/mol]

    Induction                      -0.02376052 [mEh]      -0.01490995 [kcal/mol]      -0.06238323 [kJ/mol]
      Ind20,r                      -0.02431275 [mEh]      -0.01525648 [kcal/mol]      -0.06383311 [kJ/mol]
      Ind22                         0.00046056 [mEh]       0.00028901 [kcal/mol]       0.00120921 [kJ/mol]
      Exch-Ind20,r                  0.00139925 [mEh]       0.00087804 [kcal/mol]       0.00367374 [kJ/mol]
      Exch-Ind22                   -0.00002651 [mEh]      -0.00001663 [kcal/mol]      -0.00006959 [kJ/mol]
      delta HF,r (2)               -0.00128108 [mEh]      -0.00080389 [kcal/mol]      -0.00336347 [kJ/mol]

    Dispersion                     -0.12606154 [mEh]      -0.07910481 [kcal/mol]      -0.33097453 [kJ/mol]
      Disp20                       -0.12154668 [mEh]      -0.07627169 [kcal/mol]      -0.31912076 [kJ/mol]
      Disp21                        0.01408700 [mEh]       0.00883972 [kcal/mol]       0.03698541 [kJ/mol]
      Disp22 (SDQ)                  0.00024326 [mEh]       0.00015265 [kcal/mol]       0.00063868 [kJ/mol]
      Disp22 (T)                   -0.01887239 [mEh]      -0.01184260 [kcal/mol]      -0.04954944 [kJ/mol]
      Est. Disp22 (T)              -0.01943031 [mEh]      -0.01219270 [kcal/mol]      -0.05101428 [kJ/mol]
      Exch-Disp20                   0.00058519 [mEh]       0.00036721 [kcal/mol]       0.00153642 [kJ/mol]

  Total HF                         -0.82599362 [mEh]      -0.51831882 [kcal/mol]      -2.16864596 [kJ/mol]
  Total SAPT0                      -0.94695511 [mEh]      -0.59422330 [kcal/mol]      -2.48623030 [kJ/mol]
  Total SAPT2                      -0.86881029 [mEh]      -0.54518669 [kcal/mol]      -2.28106109 [kJ/mol]
  Total SAPT2+                     -0.87391034 [mEh]      -0.54838702 [kcal/mol]      -2.29445128 [kJ/mol]

  Special recipe for scaled SAPT0 (see Manual):
    Electrostatics sSAPT0          -0.80619649 [mEh]      -0.50589594 [kcal/mol]      -2.11666860 [kJ/mol]
    Exchange sSAPT0                 0.00439744 [mEh]       0.00275944 [kcal/mol]       0.01154548 [kJ/mol]
    Induction sSAPT0               -0.02419457 [mEh]      -0.01518232 [kcal/mol]      -0.06352284 [kJ/mol]
    Dispersion sSAPT0              -0.12096149 [mEh]      -0.07590448 [kcal/mol]      -0.31758434 [kJ/mol]
  Total sSAPT0                     -0.94695511 [mEh]      -0.59422330 [kcal/mol]      -2.48623030 [kJ/mol]
  --------------------------------------------------------------------------------------------------------

*** Psi4 exiting successfully. Buy a developer a beer!
