                               Psi4 1.4a2.dev224

  ==> Input File <==

--------------------------------------------------------------------------
#Generated by lconvert.py for sapt job

memory 20 GB

molecule  {
0 1
  C       1.175590   -0.145800    0.231610
  S      -0.147760    0.408100   -0.884360
  H      -0.442200    1.535650   -0.231010
  H       0.791450   -0.327970    1.229660
  H       1.542170   -1.081880   -0.179480
  H       1.988250    0.572530    0.252180
--
0 1
  O      -2.804870   -2.181100    2.379140
  H      -2.714880   -1.742380    1.524990
  H      -3.688520   -2.552220    2.354610
units angstrom
no_reorient
symmetry c1
}

set {
scf_type DF
basis aug-cc-pvdz
freeze_core True
guess SAD
}
energy('sapt2+')
--------------------------------------------------------------------------

  //              Dimer HF             //
    Molecular point group: c1
  Charge       = 0
  Multiplicity = 1
  Basis Set: AUG-CC-PVDZ
    Blend: AUG-CC-PVDZ
  Basis Set: (AUG-CC-PVDZ AUX)
    Blend: AUG-CC-PVDZ-JKFIT
  @DF-RHF Final Energy:  -513.77286010195530
    Total Energy =                       -513.7728601019553025
  //            Monomer A HF           //
    Molecular point group: c1
  Multiplicity = 1
  Basis Set: AUG-CC-PVDZ
    Blend: AUG-CC-PVDZ
  Basis Set: (AUG-CC-PVDZ AUX)
    Blend: AUG-CC-PVDZ-JKFIT
  @DF-RHF Final Energy:  -437.73025609805995
    Total Energy =                       -437.7302560980599537
  //            Monomer B HF           //
    Molecular point group: c1

    Geometry (in Angstrom), charge = 0, multiplicity = 1:

       Center              X                  Y                   Z               Mass
    ------------   -----------------  -----------------  -----------------  -----------------
      Gh(C)           1.751593340895     0.266426851075    -0.034217682974    12.000000000000
      Gh(S)           0.428243340895     0.820326851075    -1.150187682974    31.972071174400
      Gh(H)           0.133803340895     1.947876851075    -0.496837682974     1.007825032230
      Gh(H)           1.367453340895     0.084256851075     0.963832317026     1.007825032230
      Gh(H)           2.118173340895    -0.669653148925    -0.445307682974     1.007825032230
      Gh(H)           2.564253340895     0.984756851075    -0.013647682974     1.007825032230
         O           -2.228866659105    -1.768873148925     2.113312317026    15.994914619570
         H           -2.138876659105    -1.330153148925     1.259162317026     1.007825032230
         H           -3.112516659105    -2.139993148925     2.088782317026     1.007825032230

  Charge       = 0
  Multiplicity = 1
  Basis Set: AUG-CC-PVDZ
    Blend: AUG-CC-PVDZ
  Basis Set: (AUG-CC-PVDZ AUX)
    Blend: AUG-CC-PVDZ-JKFIT

    Orbital Energies [Eh]
    ---------------------

    Doubly Occupied:

       1A    -20.578270     2A     -1.354899     3A     -0.715627
       4A     -0.586098     5A     -0.509260

  @DF-RHF Final Energy:   -76.04111197072747

   => Energetics <=

    Nuclear Repulsion Energy =              9.1546744546936516
    One-Electron Energy =                -122.9032664788353770
    Two-Electron Energy =                  37.7074800534142582
    Total Energy =                        -76.0411119707274707

  Dipole Moment: [D]
     X:    -1.3493      Y:     0.1137      Z:    -1.4910     Total:     2.0141

    SAPT Results
  --------------------------------------------------------------------------------------------------------
    Electrostatics                 -1.33842856 [mEh]      -0.83987660 [kcal/mol]      -3.51404370 [kJ/mol]
      Elst10,r                     -1.46167732 [mEh]      -0.91721636 [kcal/mol]      -3.83763327 [kJ/mol]
      Elst12,r                      0.12324875 [mEh]       0.07733976 [kcal/mol]       0.32358956 [kJ/mol]

    Exchange                        0.06228109 [mEh]       0.03908197 [kcal/mol]       0.16351897 [kJ/mol]
      Exch10                        0.05135118 [mEh]       0.03222335 [kcal/mol]       0.13482252 [kJ/mol]
      Exch10(S^2)                   0.05134816 [mEh]       0.03222146 [kcal/mol]       0.13481458 [kJ/mol]
      Exch11(S^2)                   0.00136806 [mEh]       0.00085847 [kcal/mol]       0.00359185 [kJ/mol]
      Exch12(S^2)                   0.00956184 [mEh]       0.00600015 [kcal/mol]       0.02510461 [kJ/mol]

    Induction                      -0.08300302 [mEh]      -0.05208518 [kcal/mol]      -0.21792439 [kJ/mol]
      Ind20,r                      -0.08942170 [mEh]      -0.05611296 [kcal/mol]      -0.23477664 [kJ/mol]
      Ind22                        -0.00157593 [mEh]      -0.00098891 [kcal/mol]      -0.00413761 [kJ/mol]
      Exch-Ind20,r                  0.01588505 [mEh]       0.00996802 [kcal/mol]       0.04170618 [kJ/mol]
      Exch-Ind22                    0.00027995 [mEh]       0.00017567 [kcal/mol]       0.00073501 [kJ/mol]
      delta HF,r (2)               -0.00817038 [mEh]      -0.00512699 [kcal/mol]      -0.02145133 [kJ/mol]

    Dispersion                     -0.33804288 [mEh]      -0.21212511 [kcal/mol]      -0.88753147 [kJ/mol]
      Disp20                       -0.32308025 [mEh]      -0.20273592 [kcal/mol]      -0.84824709 [kJ/mol]
      Disp21                        0.03095449 [mEh]       0.01942424 [kcal/mol]       0.08127101 [kJ/mol]
      Disp22 (SDQ)                 -0.00038080 [mEh]      -0.00023895 [kcal/mol]      -0.00099978 [kJ/mol]
      Disp22 (T)                   -0.04883244 [mEh]      -0.03064282 [kcal/mol]      -0.12820956 [kJ/mol]
      Est. Disp22 (T)              -0.05134569 [mEh]      -0.03221991 [kcal/mol]      -0.13480810 [kJ/mol]
      Exch-Disp20                   0.00580937 [mEh]       0.00364543 [kcal/mol]       0.01525250 [kJ/mol]

  Total HF                         -1.49203317 [mEh]      -0.93626495 [kcal/mol]      -3.91733254 [kJ/mol]
  Total SAPT0                      -1.80930405 [mEh]      -1.13535543 [kcal/mol]      -4.75032714 [kJ/mol]
  Total SAPT2                      -1.67642138 [mEh]      -1.05197029 [kcal/mol]      -4.40144371 [kJ/mol]
  Total SAPT2+                     -1.69719337 [mEh]      -1.06500492 [kcal/mol]      -4.45598059 [kJ/mol]

  Special recipe for scaled SAPT0 (see Manual):
    Electrostatics sSAPT0          -1.46167732 [mEh]      -0.91721636 [kcal/mol]      -3.83763327 [kJ/mol]
    Exchange sSAPT0                 0.05135118 [mEh]       0.03222335 [kcal/mol]       0.13482252 [kJ/mol]
    Induction sSAPT0               -0.08170423 [mEh]      -0.05127018 [kcal/mol]      -0.21451443 [kJ/mol]
    Dispersion sSAPT0              -0.31726986 [mEh]      -0.19908984 [kcal/mol]      -0.83299190 [kJ/mol]
  Total sSAPT0                     -1.80930022 [mEh]      -1.13535303 [kcal/mol]      -4.75031708 [kJ/mol]
  --------------------------------------------------------------------------------------------------------

*** Psi4 exiting successfully. Buy a developer a beer!
