                               Psi4 1.4a2.dev224

  ==> Input File <==

--------------------------------------------------------------------------
#Generated by lconvert.py for sapt job

memory 20 GB

molecule  {
0 1
  C      -3.110210    1.144980   -0.620730
  S      -2.707700   -0.583360   -0.238960
  H      -1.379420   -0.424590   -0.239940
  H      -2.704740    1.438710   -1.583690
  H      -2.748130    1.812570    0.154630
  H      -4.193860    1.210310   -0.661830
--
0 1
  O       1.485740    0.440600   -0.354460
  H       2.079870    0.149710   -1.049530
  H       2.043030    0.467050    0.426210
units angstrom
no_reorient
symmetry c1
}

set {
scf_type DF
basis aug-cc-pvdz
freeze_core True
guess SAD
}
energy('sapt2+')
--------------------------------------------------------------------------

  //              Dimer HF             //
    Molecular point group: c1
  Charge       = 0
  Multiplicity = 1
  Basis Set: AUG-CC-PVDZ
    Blend: AUG-CC-PVDZ
  Basis Set: (AUG-CC-PVDZ AUX)
    Blend: AUG-CC-PVDZ-JKFIT
  @DF-RHF Final Energy:  -513.77330429746314
    Total Energy =                       -513.7733042974632554
  //            Monomer A HF           //
    Molecular point group: c1
  Multiplicity = 1
  Basis Set: AUG-CC-PVDZ
    Blend: AUG-CC-PVDZ
  Basis Set: (AUG-CC-PVDZ AUX)
    Blend: AUG-CC-PVDZ-JKFIT
  @DF-RHF Final Energy:  -437.73018935557570
    Total Energy =                       -437.7301893555757033
  //            Monomer B HF           //
    Molecular point group: c1

    Geometry (in Angstrom), charge = 0, multiplicity = 1:

       Center              X                  Y                   Z               Mass
    ------------   -----------------  -----------------  -----------------  -----------------
      Gh(C)          -1.488033118344     1.041576564635    -0.261175164679    12.000000000000
      Gh(S)          -1.085523118344    -0.686763435365     0.120594835321    31.972071174400
      Gh(H)           0.242756881656    -0.527993435365     0.119614835321     1.007825032230
      Gh(H)          -1.082563118344     1.335306564635    -1.224135164679     1.007825032230
      Gh(H)          -1.125953118344     1.709166564635     0.514184835321     1.007825032230
      Gh(H)          -2.571683118344     1.106906564635    -0.302275164679     1.007825032230
         O            3.107916881656     0.337196564635     0.005094835321    15.994914619570
         H            3.702046881656     0.046306564635    -0.689975164679     1.007825032230
         H            3.665206881656     0.363646564635     0.785764835321     1.007825032230

  Charge       = 0
  Multiplicity = 1
  Basis Set: AUG-CC-PVDZ
    Blend: AUG-CC-PVDZ
  Basis Set: (AUG-CC-PVDZ AUX)
    Blend: AUG-CC-PVDZ-JKFIT

    Orbital Energies [Eh]
    ---------------------

    Doubly Occupied:

       1A    -20.578009     2A     -1.356022     3A     -0.716600
       4A     -0.586670     5A     -0.509460

  @DF-RHF Final Energy:   -76.04130025845819

   => Energetics <=

    Nuclear Repulsion Energy =              9.1742829519792419
    One-Electron Energy =                -122.9376435942941157
    Two-Electron Energy =                  37.7220603838566859
    Total Energy =                        -76.0413002584581932

  Dipole Moment: [D]
     X:     1.9577      Y:    -0.4500      Z:     0.1456     Total:     2.0140

    SAPT Results
  --------------------------------------------------------------------------------------------------------
    Electrostatics                 -1.87774131 [mEh]      -1.17830046 [kcal/mol]      -4.93000914 [kJ/mol]
      Elst10,r                     -1.98016748 [mEh]      -1.24257386 [kcal/mol]      -5.19892901 [kJ/mol]
      Elst12,r                      0.10242617 [mEh]       0.06427339 [kcal/mol]       0.26891987 [kJ/mol]

    Exchange                        0.52654596 [mEh]       0.33041258 [kcal/mol]       1.38244622 [kJ/mol]
      Exch10                        0.43500315 [mEh]       0.27296859 [kcal/mol]       1.14210060 [kJ/mol]
      Exch10(S^2)                   0.43481521 [mEh]       0.27285066 [kcal/mol]       1.14160717 [kJ/mol]
      Exch11(S^2)                  -0.00257136 [mEh]      -0.00161355 [kcal/mol]      -0.00675111 [kJ/mol]
      Exch12(S^2)                   0.09411417 [mEh]       0.05905754 [kcal/mol]       0.24709673 [kJ/mol]

    Induction                      -0.27204301 [mEh]      -0.17070957 [kcal/mol]      -0.71424884 [kJ/mol]
      Ind20,r                      -0.27318658 [mEh]      -0.17142717 [kcal/mol]      -0.71725128 [kJ/mol]
      Ind22                        -0.00315783 [mEh]      -0.00198157 [kcal/mol]      -0.00829088 [kJ/mol]
      Exch-Ind20,r                  0.05483988 [mEh]       0.03441254 [kcal/mol]       0.14398208 [kJ/mol]
      Exch-Ind22                    0.00063391 [mEh]       0.00039778 [kcal/mol]       0.00166432 [kJ/mol]
      delta HF,r (2)               -0.05117238 [mEh]      -0.03211116 [kcal/mol]      -0.13435307 [kJ/mol]

    Dispersion                     -0.80412470 [mEh]      -0.50459587 [kcal/mol]      -2.11122910 [kJ/mol]
      Disp20                       -0.77653405 [mEh]      -0.48728247 [kcal/mol]      -2.03878987 [kJ/mol]
      Disp21                        0.06583178 [mEh]       0.04131007 [kcal/mol]       0.17284133 [kJ/mol]
      Disp22 (SDQ)                 -0.01503914 [mEh]      -0.00943720 [kcal/mol]      -0.03948526 [kJ/mol]
      Disp22 (T)                   -0.11153132 [mEh]      -0.06998696 [kcal/mol]      -0.29282544 [kJ/mol]
      Est. Disp22 (T)              -0.12074249 [mEh]      -0.07576706 [kcal/mol]      -0.31700937 [kJ/mol]
      Exch-Disp20                   0.04235920 [mEh]       0.02658080 [kcal/mol]       0.11121407 [kJ/mol]

  Total HF                         -1.81468343 [mEh]      -1.13873104 [kcal/mol]      -4.76445069 [kJ/mol]
  Total SAPT0                      -2.54885828 [mEh]      -1.59943272 [kcal/mol]      -6.69202649 [kJ/mol]
  Total SAPT2                      -2.35741322 [mEh]      -1.47929913 [kcal/mol]      -6.18938756 [kJ/mol]
  Total SAPT2+                     -2.42736307 [mEh]      -1.52319332 [kcal/mol]      -6.37304086 [kJ/mol]

  Special recipe for scaled SAPT0 (see Manual):
    Electrostatics sSAPT0          -1.98016748 [mEh]      -1.24257386 [kcal/mol]      -5.19892901 [kJ/mol]
    Exchange sSAPT0                 0.43500315 [mEh]       0.27296859 [kcal/mol]       1.14210060 [kJ/mol]
    Induction sSAPT0               -0.26944795 [mEh]      -0.16908114 [kcal/mol]      -0.70743550 [kJ/mol]
    Dispersion sSAPT0              -0.73411990 [mEh]      -0.46066719 [kcal/mol]      -1.92743153 [kJ/mol]
  Total sSAPT0                     -2.54873219 [mEh]      -1.59935359 [kcal/mol]      -6.69169544 [kJ/mol]
  --------------------------------------------------------------------------------------------------------

*** Psi4 exiting successfully. Buy a developer a beer!
