                               Psi4 1.4a2.dev224

  ==> Input File <==

--------------------------------------------------------------------------
#Generated by lconvert.py for sapt job

memory 20 GB

molecule  {
0 1
  C      -3.110210    1.144980   -0.620730
  S      -2.707700   -0.583360   -0.238960
  H      -1.379420   -0.424590   -0.239940
  H      -2.704740    1.438710   -1.583690
  H      -2.748130    1.812570    0.154630
  H      -4.193860    1.210310   -0.661830
--
0 1
  O       2.146940    0.640260   -0.380890
  H       2.741060    0.349360   -1.075960
  H       2.704230    0.666710    0.399780
units angstrom
no_reorient
symmetry c1
}

set {
scf_type DF
basis aug-cc-pvdz
freeze_core True
guess SAD
}
energy('sapt2+')
--------------------------------------------------------------------------

  //              Dimer HF             //
    Molecular point group: c1
  Charge       = 0
  Multiplicity = 1
  Basis Set: AUG-CC-PVDZ
    Blend: AUG-CC-PVDZ
  Basis Set: (AUG-CC-PVDZ AUX)
    Blend: AUG-CC-PVDZ-JKFIT
  @DF-RHF Final Energy:  -513.77255967938390
    Total Energy =                       -513.7725596793839031
  //            Monomer A HF           //
    Molecular point group: c1
  Multiplicity = 1
  Basis Set: AUG-CC-PVDZ
    Blend: AUG-CC-PVDZ
  Basis Set: (AUG-CC-PVDZ AUX)
    Blend: AUG-CC-PVDZ-JKFIT
  @DF-RHF Final Energy:  -437.73016863045996
    Total Energy =                       -437.7301686304599571
  //            Monomer B HF           //
    Molecular point group: c1

    Geometry (in Angstrom), charge = 0, multiplicity = 1:

       Center              X                  Y                   Z               Mass
    ------------   -----------------  -----------------  -----------------  -----------------
      Gh(C)          -1.668427986681     0.987103532346    -0.253964274774    12.000000000000
      Gh(S)          -1.265917986681    -0.741236467654     0.127805725226    31.972071174400
      Gh(H)           0.062362013319    -0.582466467654     0.126825725226     1.007825032230
      Gh(H)          -1.262957986681     1.280833532346    -1.216924274774     1.007825032230
      Gh(H)          -1.306347986681     1.654693532346     0.521395725226     1.007825032230
      Gh(H)          -2.752077986681     1.052433532346    -0.295064274774     1.007825032230
         O            3.588722013319     0.482383532346    -0.014124274774    15.994914619570
         H            4.182842013319     0.191483532346    -0.709194274774     1.007825032230
         H            4.146012013319     0.508833532346     0.766545725226     1.007825032230

  Charge       = 0
  Multiplicity = 1
  Basis Set: AUG-CC-PVDZ
    Blend: AUG-CC-PVDZ
  Basis Set: (AUG-CC-PVDZ AUX)
    Blend: AUG-CC-PVDZ-JKFIT

    Orbital Energies [Eh]
    ---------------------

    Doubly Occupied:

       1A    -20.578008     2A     -1.356007     3A     -0.716595
       4A     -0.586675     5A     -0.509461

  @DF-RHF Final Energy:   -76.04126264617010

   => Energetics <=

    Nuclear Repulsion Energy =              9.1742970508264463
    One-Electron Energy =                -122.9376270935593709
    Two-Electron Energy =                  37.7220673965628208
    Total Energy =                        -76.0412626461700967

  Dipole Moment: [D]
     X:     1.9571      Y:    -0.4512      Z:     0.1459     Total:     2.0137

    SAPT Results
  --------------------------------------------------------------------------------------------------------
    Electrostatics                 -0.99718648 [mEh]      -0.62574396 [kcal/mol]      -2.61811273 [kJ/mol]
      Elst10,r                     -1.08376672 [mEh]      -0.68007389 [kcal/mol]      -2.84542914 [kJ/mol]
      Elst12,r                      0.08658025 [mEh]       0.05432992 [kcal/mol]       0.22731640 [kJ/mol]

    Exchange                        0.04611570 [mEh]       0.02893804 [kcal/mol]       0.12107675 [kJ/mol]
      Exch10                        0.03594104 [mEh]       0.02255334 [kcal/mol]       0.09436318 [kJ/mol]
      Exch10(S^2)                   0.03593949 [mEh]       0.02255237 [kcal/mol]       0.09435912 [kJ/mol]
      Exch11(S^2)                  -0.00071621 [mEh]      -0.00044943 [kcal/mol]      -0.00188040 [kJ/mol]
      Exch12(S^2)                   0.01089087 [mEh]       0.00683412 [kcal/mol]       0.02859397 [kJ/mol]

    Induction                      -0.07623122 [mEh]      -0.04783582 [kcal/mol]      -0.20014505 [kJ/mol]
      Ind20,r                      -0.07951998 [mEh]      -0.04989954 [kcal/mol]      -0.20877968 [kJ/mol]
      Ind22                         0.00454464 [mEh]       0.00285181 [kcal/mol]       0.01193196 [kJ/mol]
      Exch-Ind20,r                  0.00347852 [mEh]       0.00218280 [kcal/mol]       0.00913284 [kJ/mol]
      Exch-Ind22                   -0.00019880 [mEh]      -0.00012475 [kcal/mol]      -0.00052195 [kJ/mol]
      delta HF,r (2)               -0.00453560 [mEh]      -0.00284613 [kcal/mol]      -0.01190822 [kJ/mol]

    Dispersion                     -0.28027656 [mEh]      -0.17587619 [kcal/mol]      -0.73586599 [kJ/mol]
      Disp20                       -0.26726751 [mEh]      -0.16771290 [kcal/mol]      -0.70171076 [kJ/mol]
      Disp21                        0.02963429 [mEh]       0.01859580 [kcal/mol]       0.07780481 [kJ/mol]
      Disp22 (SDQ)                 -0.00483125 [mEh]      -0.00303165 [kcal/mol]      -0.01268444 [kJ/mol]
      Disp22 (T)                   -0.04061640 [mEh]      -0.02548717 [kcal/mol]      -0.10663833 [kJ/mol]
      Est. Disp22 (T)              -0.04226717 [mEh]      -0.02652305 [kcal/mol]      -0.11097244 [kJ/mol]
      Exch-Disp20                   0.00445509 [mEh]       0.00279561 [kcal/mol]       0.01169682 [kJ/mol]

  Total HF                         -1.12840275 [mEh]      -0.70808342 [kcal/mol]      -2.96262102 [kJ/mol]
  Total SAPT0                      -1.39121518 [mEh]      -0.87300071 [kcal/mol]      -3.65263495 [kJ/mol]
  Total SAPT2                      -1.29011443 [mEh]      -0.80955903 [kcal/mol]      -3.38719497 [kJ/mol]
  Total SAPT2+                     -1.30757856 [mEh]      -0.82051793 [kcal/mol]      -3.43304703 [kJ/mol]

  Special recipe for scaled SAPT0 (see Manual):
    Electrostatics sSAPT0          -1.08376672 [mEh]      -0.68007389 [kcal/mol]      -2.84542914 [kJ/mol]
    Exchange sSAPT0                 0.03594104 [mEh]       0.02255334 [kcal/mol]       0.09436318 [kJ/mol]
    Induction sSAPT0               -0.08057662 [mEh]      -0.05056259 [kcal/mol]      -0.21155388 [kJ/mol]
    Dispersion sSAPT0              -0.26281185 [mEh]      -0.16491693 [kcal/mol]      -0.69001242 [kJ/mol]
  Total sSAPT0                     -1.39121416 [mEh]      -0.87300006 [kcal/mol]      -3.65263227 [kJ/mol]
  --------------------------------------------------------------------------------------------------------

*** Psi4 exiting successfully. Buy a developer a beer!
