                               Psi4 1.4a2.dev224

  ==> Input File <==

--------------------------------------------------------------------------
#Generated by lconvert.py for sapt job

memory 20 GB

molecule  {
0 1
  C      -3.110210    1.144980   -0.620730
  S      -2.707700   -0.583360   -0.238960
  H      -1.379420   -0.424590   -0.239940
  H      -2.704740    1.438710   -1.583690
  H      -2.748130    1.812570    0.154630
  H      -4.193860    1.210310   -0.661830
--
0 1
  O       2.808130    0.839920   -0.407320
  H       3.402260    0.549020   -1.102390
  H       3.365420    0.866370    0.373350
units angstrom
no_reorient
symmetry c1
}

set {
scf_type DF
basis aug-cc-pvdz
freeze_core True
guess SAD
}
energy('sapt2+')
--------------------------------------------------------------------------

  //              Dimer HF             //
    Molecular point group: c1
  Charge       = 0
  Multiplicity = 1
  Basis Set: AUG-CC-PVDZ
    Blend: AUG-CC-PVDZ
  Basis Set: (AUG-CC-PVDZ AUX)
    Blend: AUG-CC-PVDZ-JKFIT
  @DF-RHF Final Energy:  -513.77212106195964
    Total Energy =                       -513.7721210619596377
  //            Monomer A HF           //
    Molecular point group: c1
  Multiplicity = 1
  Basis Set: AUG-CC-PVDZ
    Blend: AUG-CC-PVDZ
  Basis Set: (AUG-CC-PVDZ AUX)
    Blend: AUG-CC-PVDZ-JKFIT
  @DF-RHF Final Energy:  -437.73015844605510
    Total Energy =                       -437.7301584460550430
  //            Monomer B HF           //
    Molecular point group: c1

    Geometry (in Angstrom), charge = 0, multiplicity = 1:

       Center              X                  Y                   Z               Mass
    ------------   -----------------  -----------------  -----------------  -----------------
      Gh(C)          -1.848820432057     0.932630347388    -0.246753384869    12.000000000000
      Gh(S)          -1.446310432057    -0.795709652612     0.135016615131    31.972071174400
      Gh(H)          -0.118030432057    -0.636939652612     0.134036615131     1.007825032230
      Gh(H)          -1.443350432057     1.226360347388    -1.209713384869     1.007825032230
      Gh(H)          -1.486740432057     1.600220347388     0.528606615131     1.007825032230
      Gh(H)          -2.932470432057     0.997960347388    -0.287853384869     1.007825032230
         O            4.069519567943     0.627570347388    -0.033343384869    15.994914619570
         H            4.663649567943     0.336670347388    -0.728413384869     1.007825032230
         H            4.626809567943     0.654020347388     0.747326615131     1.007825032230

  Charge       = 0
  Multiplicity = 1
  Basis Set: AUG-CC-PVDZ
    Blend: AUG-CC-PVDZ
  Basis Set: (AUG-CC-PVDZ AUX)
    Blend: AUG-CC-PVDZ-JKFIT

    Orbital Energies [Eh]
    ---------------------

    Doubly Occupied:

       1A    -20.578003     2A     -1.356000     3A     -0.716589
       4A     -0.586674     5A     -0.509462

  @DF-RHF Final Energy:   -76.04124666583236

   => Energetics <=

    Nuclear Repulsion Energy =              9.1742685252979079
    One-Electron Energy =                -122.9375752378880975
    Two-Electron Energy =                  37.7220600467578251
    Total Energy =                        -76.0412466658323751

  Dipole Moment: [D]
     X:     1.9563      Y:    -0.4513      Z:     0.1459     Total:     2.0129

    SAPT Results
  --------------------------------------------------------------------------------------------------------
    Electrostatics                 -0.62376163 [mEh]      -0.39141634 [kcal/mol]      -1.63768595 [kJ/mol]
      Elst10,r                     -0.68609109 [mEh]      -0.43052866 [kcal/mol]      -1.80133191 [kJ/mol]
      Elst12,r                      0.06232946 [mEh]       0.03911232 [kcal/mol]       0.16364597 [kJ/mol]

    Exchange                        0.00402013 [mEh]       0.00252267 [kcal/mol]       0.01055485 [kJ/mol]
      Exch10                        0.00298394 [mEh]       0.00187245 [kcal/mol]       0.00783434 [kJ/mol]
      Exch10(S^2)                   0.00298393 [mEh]       0.00187245 [kcal/mol]       0.00783431 [kJ/mol]
      Exch11(S^2)                  -0.00010560 [mEh]      -0.00006627 [kcal/mol]      -0.00027726 [kJ/mol]
      Exch12(S^2)                   0.00114179 [mEh]       0.00071648 [kcal/mol]       0.00299777 [kJ/mol]

    Induction                      -0.03023404 [mEh]      -0.01897215 [kcal/mol]      -0.07937946 [kJ/mol]
      Ind20,r                      -0.03175213 [mEh]      -0.01992476 [kcal/mol]      -0.08336521 [kJ/mol]
      Ind22                         0.00262571 [mEh]       0.00164766 [kcal/mol]       0.00689380 [kJ/mol]
      Exch-Ind20,r                  0.00020349 [mEh]       0.00012769 [kcal/mol]       0.00053427 [kJ/mol]
      Exch-Ind22                   -0.00001683 [mEh]      -0.00001056 [kcal/mol]      -0.00004418 [kJ/mol]
      delta HF,r (2)               -0.00129429 [mEh]      -0.00081218 [kcal/mol]      -0.00339815 [kJ/mol]

    Dispersion                     -0.11517012 [mEh]      -0.07227034 [kcal/mol]      -0.30237911 [kJ/mol]
      Disp20                       -0.11098369 [mEh]      -0.06964332 [kcal/mol]      -0.29138763 [kJ/mol]
      Disp21                        0.01469965 [mEh]       0.00922417 [kcal/mol]       0.03859392 [kJ/mol]
      Disp22 (SDQ)                 -0.00178302 [mEh]      -0.00111886 [kcal/mol]      -0.00468132 [kJ/mol]
      Disp22 (T)                   -0.01696540 [mEh]      -0.01064595 [kcal/mol]      -0.04454266 [kJ/mol]
      Est. Disp22 (T)              -0.01751476 [mEh]      -0.01099068 [kcal/mol]      -0.04598500 [kJ/mol]
      Exch-Disp20                   0.00041170 [mEh]       0.00025835 [kcal/mol]       0.00108093 [kJ/mol]

  Total HF                         -0.71595007 [mEh]      -0.44926545 [kcal/mol]      -1.87972666 [kJ/mol]
  Total SAPT0                      -0.82652206 [mEh]      -0.51865042 [kcal/mol]      -2.17003336 [kJ/mol]
  Total SAPT2                      -0.76054753 [mEh]      -0.47725078 [kcal/mol]      -1.99681727 [kJ/mol]
  Total SAPT2+                     -0.76514567 [mEh]      -0.48013616 [kcal/mol]      -2.00888967 [kJ/mol]

  Special recipe for scaled SAPT0 (see Manual):
    Electrostatics sSAPT0          -0.68609109 [mEh]      -0.43052866 [kcal/mol]      -1.80133191 [kJ/mol]
    Exchange sSAPT0                 0.00298394 [mEh]       0.00187245 [kcal/mol]       0.00783434 [kJ/mol]
    Induction sSAPT0               -0.03284292 [mEh]      -0.02060925 [kcal/mol]      -0.08622908 [kJ/mol]
    Dispersion sSAPT0              -0.11057198 [mEh]      -0.06938497 [kcal/mol]      -0.29030671 [kJ/mol]
  Total sSAPT0                     -0.82652206 [mEh]      -0.51865042 [kcal/mol]      -2.17003336 [kJ/mol]
  --------------------------------------------------------------------------------------------------------

*** Psi4 exiting successfully. Buy a developer a beer!
