                               Psi4 1.4a2.dev224

  ==> Input File <==

--------------------------------------------------------------------------
#Generated by lconvert.py for sapt job

memory 20 GB

molecule  {
0 1
  C       0.794820   -0.002740   -0.413600
  S       0.780280    1.808500   -0.282020
  H       1.198610    1.874300    0.985120
  H       0.053820   -0.448810    0.243540
  H       0.541250   -0.232540   -1.444970
  H       1.782470   -0.400100   -0.203580
--
0 1
  C      -5.705640   -0.129350    0.002060
  S      -5.369430   -0.031530    1.782670
  H      -4.357960    0.838600    1.677200
  H      -4.842620   -0.503020   -0.540810
  H      -6.003900    0.836240   -0.393260
  H      -6.527330   -0.829480   -0.120290
units angstrom
no_reorient
symmetry c1
}

set {
scf_type DF
basis aug-cc-pvdz
freeze_core True
guess SAD
}
energy('sapt2+')
--------------------------------------------------------------------------

  //              Dimer HF             //
    Molecular point group: c1
  Charge       = 0
  Multiplicity = 1
  Basis Set: AUG-CC-PVDZ
    Blend: AUG-CC-PVDZ
  Basis Set: (AUG-CC-PVDZ AUX)
    Blend: AUG-CC-PVDZ-JKFIT
  @DF-RHF Final Energy:  -875.46053336569821
    Total Energy =                       -875.4605333656982111
  //            Monomer A HF           //
    Molecular point group: c1
  Multiplicity = 1
  Basis Set: AUG-CC-PVDZ
    Blend: AUG-CC-PVDZ
  Basis Set: (AUG-CC-PVDZ AUX)
    Blend: AUG-CC-PVDZ-JKFIT
  @DF-RHF Final Energy:  -437.73018829118564
    Total Energy =                       -437.7301882911856410
  //            Monomer B HF           //
    Molecular point group: c1

    Geometry (in Angstrom), charge = 0, multiplicity = 1:

       Center              X                  Y                   Z               Mass
    ------------   -----------------  -----------------  -----------------  -----------------
      Gh(C)           3.127491570498    -0.589911303625    -0.864036558142    12.000000000000
      Gh(S)           3.112951570498     1.221328696375    -0.732456558142    31.972071174400
      Gh(H)           3.531281570498     1.287128696375     0.534683441858     1.007825032230
      Gh(H)           2.386491570498    -1.035981303625    -0.206896558142     1.007825032230
      Gh(H)           2.873921570498    -0.819711303625    -1.895406558142     1.007825032230
      Gh(H)           4.115141570498    -0.987271303625    -0.654016558142     1.007825032230
         C           -3.372968429502    -0.716521303625    -0.448376558142    12.000000000000
         S           -3.036758429502    -0.618701303625     1.332233441858    31.972071174400
         H           -2.025288429502     0.251428696375     1.226763441858     1.007825032230
         H           -2.509948429502    -1.090191303625    -0.991246558142     1.007825032230
         H           -3.671228429502     0.249068696375    -0.843696558142     1.007825032230
         H           -4.194658429502    -1.416651303625    -0.570726558142     1.007825032230

  Charge       = 0
  Multiplicity = 1
  Basis Set: AUG-CC-PVDZ
    Blend: AUG-CC-PVDZ
  Basis Set: (AUG-CC-PVDZ AUX)
    Blend: AUG-CC-PVDZ-JKFIT

    Orbital Energies [Eh]
    ---------------------

    Doubly Occupied:

       1A    -91.955790     2A    -11.264599     3A     -8.957782
       4A     -6.639902     5A     -6.638554     6A     -6.636326
       7A     -1.041257     8A     -0.868777     9A     -0.609557
      10A     -0.592438    11A     -0.527155    12A     -0.461442
      13A     -0.356817

  @DF-RHF Final Energy:  -437.73006732094046

   => Energetics <=

    Nuclear Repulsion Energy =             56.4509116468952215
    One-Electron Energy =                -715.2611628012750771
    Two-Electron Energy =                 221.0801838334393778
    Total Energy =                       -437.7300673209405204

  Dipole Moment: [D]
     X:     0.2994      Y:     0.4257      Z:    -1.6334     Total:     1.7143

    SAPT Results
  --------------------------------------------------------------------------------------------------------
    Electrostatics                 -0.25179448 [mEh]      -0.15800342 [kcal/mol]      -0.66108633 [kJ/mol]
      Elst10,r                     -0.27086372 [mEh]      -0.16996955 [kcal/mol]      -0.71115261 [kJ/mol]
      Elst12,r                      0.01906924 [mEh]       0.01196613 [kcal/mol]       0.05006628 [kJ/mol]

    Exchange                        0.00148476 [mEh]       0.00093170 [kcal/mol]       0.00389824 [kJ/mol]
      Exch10                        0.00119490 [mEh]       0.00074981 [kcal/mol]       0.00313721 [kJ/mol]
      Exch10(S^2)                   0.00119490 [mEh]       0.00074981 [kcal/mol]       0.00313720 [kJ/mol]
      Exch11(S^2)                   0.00004050 [mEh]       0.00002541 [kcal/mol]       0.00010633 [kJ/mol]
      Exch12(S^2)                   0.00024936 [mEh]       0.00015648 [kcal/mol]       0.00065471 [kJ/mol]

    Induction                      -0.00784493 [mEh]      -0.00492277 [kcal/mol]      -0.02059687 [kJ/mol]
      Ind20,r                      -0.00860321 [mEh]      -0.00539859 [kcal/mol]      -0.02258772 [kJ/mol]
      Ind22                         0.00024724 [mEh]       0.00015515 [kcal/mol]       0.00064913 [kJ/mol]
      Exch-Ind20,r                  0.00025834 [mEh]       0.00016211 [kcal/mol]       0.00067828 [kJ/mol]
      Exch-Ind22                   -0.00000742 [mEh]      -0.00000466 [kcal/mol]      -0.00001949 [kJ/mol]
      delta HF,r (2)                0.00026012 [mEh]       0.00016323 [kcal/mol]       0.00068294 [kJ/mol]

    Dispersion                     -0.17261212 [mEh]      -0.10831574 [kcal/mol]      -0.45319305 [kJ/mol]
      Disp20                       -0.18516418 [mEh]      -0.11619228 [kcal/mol]      -0.48614849 [kJ/mol]
      Disp21                        0.03617874 [mEh]       0.02270250 [kcal/mol]       0.09498727 [kJ/mol]
      Disp22 (SDQ)                  0.00328881 [mEh]       0.00206376 [kcal/mol]       0.00863476 [kJ/mol]
      Disp22 (T)                   -0.02676110 [mEh]      -0.01679284 [kcal/mol]      -0.07026126 [kJ/mol]
      Est. Disp22 (T)              -0.02716560 [mEh]      -0.01704667 [kcal/mol]      -0.07132328 [kJ/mol]
      Exch-Disp20                   0.00025012 [mEh]       0.00015695 [kcal/mol]       0.00065669 [kJ/mol]

  Total HF                         -0.27775357 [mEh]      -0.17429300 [kcal/mol]      -0.72924190 [kJ/mol]
  Total SAPT0                      -0.46266763 [mEh]      -0.29032832 [kcal/mol]      -1.21473370 [kJ/mol]
  Total SAPT2                      -0.44306871 [mEh]      -0.27802982 [kcal/mol]      -1.16327675 [kJ/mol]
  Total SAPT2+                     -0.43076677 [mEh]      -0.27031023 [kcal/mol]      -1.13097800 [kJ/mol]

  Special recipe for scaled SAPT0 (see Manual):
    Electrostatics sSAPT0          -0.27086372 [mEh]      -0.16996955 [kcal/mol]      -0.71115261 [kJ/mol]
    Exchange sSAPT0                 0.00119490 [mEh]       0.00074981 [kcal/mol]       0.00313721 [kJ/mol]
    Induction sSAPT0               -0.00808475 [mEh]      -0.00507326 [kcal/mol]      -0.02122650 [kJ/mol]
    Dispersion sSAPT0              -0.18491406 [mEh]      -0.11603533 [kcal/mol]      -0.48549180 [kJ/mol]
  Total sSAPT0                     -0.46266763 [mEh]      -0.29032832 [kcal/mol]      -1.21473370 [kJ/mol]
  --------------------------------------------------------------------------------------------------------

*** Psi4 exiting successfully. Buy a developer a beer!
