                               Psi4 1.4a2.dev224

  ==> Input File <==

--------------------------------------------------------------------------
#Generated by lconvert.py for sapt job

memory 20 GB

molecule  {
0 1
  C       0.794820   -0.002740   -0.413600
  S       0.780280    1.808500   -0.282020
  H       1.198610    1.874300    0.985120
  H       0.053820   -0.448810    0.243540
  H       0.541250   -0.232540   -1.444970
  H       1.782470   -0.400100   -0.203580
--
0 1
  C      -4.860660    0.041950   -0.200900
  S      -4.524450    0.139770    1.579700
  H      -3.512980    1.009900    1.474230
  H      -3.997640   -0.331720   -0.743780
  H      -5.158920    1.007540   -0.596230
  H      -5.682350   -0.658180   -0.323260
units angstrom
no_reorient
symmetry c1
}

set {
scf_type DF
basis aug-cc-pvdz
freeze_core True
guess SAD
}
energy('sapt2+')
--------------------------------------------------------------------------

  //              Dimer HF             //
    Molecular point group: c1
  Charge       = 0
  Multiplicity = 1
  Basis Set: AUG-CC-PVDZ
    Blend: AUG-CC-PVDZ
  Basis Set: (AUG-CC-PVDZ AUX)
    Blend: AUG-CC-PVDZ-JKFIT
  @DF-RHF Final Energy:  -875.46080112876871
    Total Energy =                       -875.4608011287687077
  //            Monomer A HF           //
    Molecular point group: c1
  Multiplicity = 1
  Basis Set: AUG-CC-PVDZ
    Blend: AUG-CC-PVDZ
  Basis Set: (AUG-CC-PVDZ AUX)
    Blend: AUG-CC-PVDZ-JKFIT
  @DF-RHF Final Energy:  -437.73021391842099
    Total Energy =                       -437.7302139184209864
  //            Monomer B HF           //
    Molecular point group: c1

    Geometry (in Angstrom), charge = 0, multiplicity = 1:

       Center              X                  Y                   Z               Mass
    ------------   -----------------  -----------------  -----------------  -----------------
      Gh(C)           2.705001570498    -0.675561303625    -0.762552808054    12.000000000000
      Gh(S)           2.690461570498     1.135678696375    -0.630972808054    31.972071174400
      Gh(H)           3.108791570498     1.201478696375     0.636167191946     1.007825032230
      Gh(H)           1.964001570498    -1.121631303625    -0.105412808054     1.007825032230
      Gh(H)           2.451431570498    -0.905361303625    -1.793922808054     1.007825032230
      Gh(H)           3.692651570498    -1.072921303625    -0.552532808054     1.007825032230
         C           -2.950478429502    -0.630871303625    -0.549852808054    12.000000000000
         S           -2.614268429502    -0.533051303625     1.230747191946    31.972071174400
         H           -1.602798429502     0.337078696375     1.125277191946     1.007825032230
         H           -2.087458429502    -1.004541303625    -1.092732808054     1.007825032230
         H           -3.248738429502     0.334718696375    -0.945182808054     1.007825032230
         H           -3.772168429502    -1.331001303625    -0.672212808054     1.007825032230

  Charge       = 0
  Multiplicity = 1
  Basis Set: AUG-CC-PVDZ
    Blend: AUG-CC-PVDZ
  Basis Set: (AUG-CC-PVDZ AUX)
    Blend: AUG-CC-PVDZ-JKFIT

    Orbital Energies [Eh]
    ---------------------

    Doubly Occupied:

       1A    -91.955812     2A    -11.264594     3A     -8.957790
       4A     -6.639912     5A     -6.638563     6A     -6.636336
       7A     -1.041252     8A     -0.868770     9A     -0.609551
      10A     -0.592430    11A     -0.527151    12A     -0.461437
      13A     -0.356813

  @DF-RHF Final Energy:  -437.73008776204995

   => Energetics <=

    Nuclear Repulsion Energy =             56.4510407545262751
    One-Electron Energy =                -715.2614342837073309
    Two-Electron Energy =                 221.0803057671311365
    Total Energy =                       -437.7300877620499477

  Dipole Moment: [D]
     X:     0.2978      Y:     0.4243      Z:    -1.6322     Total:     1.7125

    SAPT Results
  --------------------------------------------------------------------------------------------------------
    Electrostatics                 -0.46431303 [mEh]      -0.29136082 [kcal/mol]      -1.21905368 [kJ/mol]
      Elst10,r                     -0.49162761 [mEh]      -0.30850099 [kcal/mol]      -1.29076812 [kJ/mol]
      Elst12,r                      0.02731459 [mEh]       0.01714016 [kcal/mol]       0.07171444 [kJ/mol]

    Exchange                        0.02466464 [mEh]       0.01547729 [kcal/mol]       0.06475700 [kJ/mol]
      Exch10                        0.01994739 [mEh]       0.01251717 [kcal/mol]       0.05237186 [kJ/mol]
      Exch10(S^2)                   0.01994702 [mEh]       0.01251694 [kcal/mol]       0.05237089 [kJ/mol]
      Exch11(S^2)                   0.00088825 [mEh]       0.00055739 [kcal/mol]       0.00233210 [kJ/mol]
      Exch12(S^2)                   0.00382900 [mEh]       0.00240273 [kcal/mol]       0.01005304 [kJ/mol]

    Induction                      -0.02818169 [mEh]      -0.01768428 [kcal/mol]      -0.07399101 [kJ/mol]
      Ind20,r                      -0.02861757 [mEh]      -0.01795780 [kcal/mol]      -0.07513542 [kJ/mol]
      Ind22                        -0.00048731 [mEh]      -0.00030579 [kcal/mol]      -0.00127943 [kJ/mol]
      Exch-Ind20,r                  0.00432756 [mEh]       0.00271559 [kcal/mol]       0.01136201 [kJ/mol]
      Exch-Ind22                    0.00007369 [mEh]       0.00004624 [kcal/mol]       0.00019348 [kJ/mol]
      delta HF,r (2)               -0.00347806 [mEh]      -0.00218252 [kcal/mol]      -0.00913165 [kJ/mol]

    Dispersion                     -0.44788039 [mEh]      -0.28104918 [kcal/mol]      -1.17590979 [kJ/mol]
      Disp20                       -0.47234964 [mEh]      -0.29640387 [kcal/mol]      -1.24015381 [kJ/mol]
      Disp21                        0.08215422 [mEh]       0.05155255 [kcal/mol]       0.21569588 [kJ/mol]
      Disp22 (SDQ)                  0.00765271 [mEh]       0.00480215 [kcal/mol]       0.02009219 [kJ/mol]
      Disp22 (T)                   -0.06696336 [mEh]      -0.04202014 [kcal/mol]      -0.17581228 [kJ/mol]
      Est. Disp22 (T)              -0.06905201 [mEh]      -0.04333079 [kcal/mol]      -0.18129604 [kJ/mol]
      Exch-Disp20                   0.00371434 [mEh]       0.00233078 [kcal/mol]       0.00975199 [kJ/mol]

  Total HF                         -0.49944830 [mEh]      -0.31340854 [kcal/mol]      -1.31130133 [kJ/mol]
  Total SAPT0                      -0.96808360 [mEh]      -0.60748163 [kcal/mol]      -2.54170315 [kJ/mol]
  Total SAPT2                      -0.93646538 [mEh]      -0.58764090 [kcal/mol]      -2.45868952 [kJ/mol]
  Total SAPT2+                     -0.91571046 [mEh]      -0.57461699 [kcal/mol]      -2.40419749 [kJ/mol]

  Special recipe for scaled SAPT0 (see Manual):
    Electrostatics sSAPT0          -0.49162761 [mEh]      -0.30850099 [kcal/mol]      -1.29076812 [kJ/mol]
    Exchange sSAPT0                 0.01994739 [mEh]       0.01251717 [kcal/mol]       0.05237186 [kJ/mol]
    Induction sSAPT0               -0.02776783 [mEh]      -0.01742458 [kcal/mol]      -0.07290443 [kJ/mol]
    Dispersion sSAPT0              -0.46863510 [mEh]      -0.29407296 [kcal/mol]      -1.23040128 [kJ/mol]
  Total sSAPT0                     -0.96808316 [mEh]      -0.60748135 [kcal/mol]      -2.54170198 [kJ/mol]
  --------------------------------------------------------------------------------------------------------

*** Psi4 exiting successfully. Buy a developer a beer!
