                               Psi4 1.4a2.dev224

  ==> Input File <==

--------------------------------------------------------------------------
#Generated by lconvert.py for sapt job

memory 20 GB

molecule  {
0 1
  C       0.794820   -0.002740   -0.413600
  S       0.780280    1.808500   -0.282020
  H       1.198610    1.874300    0.985120
  H       0.053820   -0.448810    0.243540
  H       0.541250   -0.232540   -1.444970
  H       1.782470   -0.400100   -0.203580
--
0 1
  C      -4.015680    0.213250   -0.403870
  S      -3.679470    0.311070    1.376730
  H      -2.668000    1.181200    1.271270
  H      -3.152660   -0.160420   -0.946740
  H      -4.313940    1.178840   -0.799190
  H      -4.837370   -0.486880   -0.526220
units angstrom
no_reorient
symmetry c1
}

set {
scf_type DF
basis aug-cc-pvdz
freeze_core True
guess SAD
}
energy('sapt2+')
--------------------------------------------------------------------------

  //              Dimer HF             //
    Molecular point group: c1
  Charge       = 0
  Multiplicity = 1
  Basis Set: AUG-CC-PVDZ
    Blend: AUG-CC-PVDZ
  Basis Set: (AUG-CC-PVDZ AUX)
    Blend: AUG-CC-PVDZ-JKFIT
  @DF-RHF Final Energy:  -875.46130218371763
    Total Energy =                       -875.4613021837176348
  //            Monomer A HF           //
    Molecular point group: c1
  Multiplicity = 1
  Basis Set: AUG-CC-PVDZ
    Blend: AUG-CC-PVDZ
  Basis Set: (AUG-CC-PVDZ AUX)
    Blend: AUG-CC-PVDZ-JKFIT
  @DF-RHF Final Energy:  -437.73027162700646
    Total Energy =                       -437.7302716270064593
  //            Monomer B HF           //
    Molecular point group: c1

    Geometry (in Angstrom), charge = 0, multiplicity = 1:

       Center              X                  Y                   Z               Mass
    ------------   -----------------  -----------------  -----------------  -----------------
      Gh(C)           2.282511570498    -0.761211303625    -0.661068227952    12.000000000000
      Gh(S)           2.267971570498     1.050028696375    -0.529488227952    31.972071174400
      Gh(H)           2.686301570498     1.115828696375     0.737651772048     1.007825032230
      Gh(H)           1.541511570498    -1.207281303625    -0.003928227952     1.007825032230
      Gh(H)           2.028941570498    -0.991011303625    -1.692438227952     1.007825032230
      Gh(H)           3.270161570498    -1.158571303625    -0.451048227952     1.007825032230
         C           -2.527988429502    -0.545221303625    -0.651338227952    12.000000000000
         S           -2.191778429502    -0.447401303625     1.129261772048    31.972071174400
         H           -1.180308429502     0.422728696375     1.023801772048     1.007825032230
         H           -1.664968429502    -0.918891303625    -1.194208227952     1.007825032230
         H           -2.826248429502     0.420368696375    -1.046658227952     1.007825032230
         H           -3.349678429502    -1.245351303625    -0.773688227952     1.007825032230

  Charge       = 0
  Multiplicity = 1
  Basis Set: AUG-CC-PVDZ
    Blend: AUG-CC-PVDZ
  Basis Set: (AUG-CC-PVDZ AUX)
    Blend: AUG-CC-PVDZ-JKFIT

    Orbital Energies [Eh]
    ---------------------

    Doubly Occupied:

       1A    -91.955880     2A    -11.264592     3A     -8.957815
       4A     -6.639945     5A     -6.638594     6A     -6.636370
       7A     -1.041248     8A     -0.868762     9A     -0.609543
      10A     -0.592421    11A     -0.527142    12A     -0.461426
      13A     -0.356803

  @DF-RHF Final Energy:  -437.73013761448595

   => Energetics <=

    Nuclear Repulsion Energy =             56.4511055174728327
    One-Electron Energy =                -715.2614009194445543
    Two-Electron Energy =                 221.0801577874858026
    Total Energy =                       -437.7301376144859546

  Dipole Moment: [D]
     X:     0.2961      Y:     0.4230      Z:    -1.6308     Total:     1.7106

    SAPT Results
  --------------------------------------------------------------------------------------------------------
    Electrostatics                 -1.07371208 [mEh]      -0.67376450 [kcal/mol]      -2.81903067 [kJ/mol]
      Elst10,r                     -1.08970077 [mEh]      -0.68379756 [kcal/mol]      -2.86100897 [kJ/mol]
      Elst12,r                      0.01598869 [mEh]       0.01003305 [kcal/mol]       0.04197830 [kJ/mol]

    Exchange                        0.40085509 [mEh]       0.25154036 [kcal/mol]       1.05244488 [kJ/mol]
      Exch10                        0.33800953 [mEh]       0.21210418 [kcal/mol]       0.88744389 [kJ/mol]
      Exch10(S^2)                   0.33792365 [mEh]       0.21205029 [kcal/mol]       0.88721841 [kJ/mol]
      Exch11(S^2)                   0.01563160 [mEh]       0.00980898 [kcal/mol]       0.04104076 [kJ/mol]
      Exch12(S^2)                   0.04721396 [mEh]       0.02962721 [kcal/mol]       0.12396023 [kJ/mol]

    Induction                      -0.14997978 [mEh]      -0.09411373 [kcal/mol]      -0.39377186 [kJ/mol]
      Ind20,r                      -0.16533028 [mEh]      -0.10374632 [kcal/mol]      -0.43407460 [kJ/mol]
      Ind22                        -0.01548174 [mEh]      -0.00971494 [kcal/mol]      -0.04064731 [kJ/mol]
      Exch-Ind20,r                  0.07211506 [mEh]       0.04525288 [kcal/mol]       0.18933805 [kJ/mol]
      Exch-Ind22                    0.00675295 [mEh]       0.00423754 [kcal/mol]       0.01772986 [kJ/mol]
      delta HF,r (2)               -0.04803576 [mEh]      -0.03014289 [kcal/mol]      -0.12611786 [kJ/mol]

    Dispersion                     -1.38585735 [mEh]      -0.86963862 [kcal/mol]      -3.63856798 [kJ/mol]
      Disp20                       -1.45200943 [mEh]      -0.91114967 [kcal/mol]      -3.81225022 [kJ/mol]
      Disp21                        0.20722182 [mEh]       0.13003365 [kcal/mol]       0.54406080 [kJ/mol]
      Disp22 (SDQ)                  0.02079006 [mEh]       0.01304596 [kcal/mol]       0.05458428 [kJ/mol]
      Disp22 (T)                   -0.20072764 [mEh]      -0.12595849 [kcal/mol]      -0.52701034 [kJ/mol]
      Est. Disp22 (T)              -0.21055248 [mEh]      -0.13212368 [kcal/mol]      -0.55280546 [kJ/mol]
      Exch-Disp20                   0.04869268 [mEh]       0.03055512 [kcal/mol]       0.12784261 [kJ/mol]

  Total HF                         -0.89294223 [mEh]      -0.56032971 [kcal/mol]      -2.34441949 [kJ/mol]
  Total SAPT0                      -2.29625897 [mEh]      -1.44092426 [kcal/mol]      -6.02882710 [kJ/mol]
  Total SAPT2                      -2.22615352 [mEh]      -1.39693242 [kcal/mol]      -5.84476525 [kJ/mol]
  Total SAPT2+                     -2.20869412 [mEh]      -1.38597649 [kcal/mol]      -5.79892563 [kJ/mol]

  Special recipe for scaled SAPT0 (see Manual):
    Electrostatics sSAPT0          -1.08970077 [mEh]      -0.68379756 [kcal/mol]      -2.86100897 [kJ/mol]
    Exchange sSAPT0                 0.33800953 [mEh]       0.21210418 [kcal/mol]       0.88744389 [kJ/mol]
    Induction sSAPT0               -0.14119599 [mEh]      -0.08860182 [kcal/mol]      -0.37071001 [kJ/mol]
    Dispersion sSAPT0              -1.40327961 [mEh]      -0.88057125 [kcal/mol]      -3.68431011 [kJ/mol]
  Total sSAPT0                     -2.29616684 [mEh]      -1.44086644 [kcal/mol]      -6.02858520 [kJ/mol]
  --------------------------------------------------------------------------------------------------------

*** Psi4 exiting successfully. Buy a developer a beer!
