                               Psi4 1.4a2.dev224

  ==> Input File <==

--------------------------------------------------------------------------
#Generated by lconvert.py for sapt job

memory 20 GB

molecule  {
0 1
  C      -3.546780   -0.481930    0.591520
  O      -1.627660    0.158050   -1.132410
  S      -2.263920    0.691080    0.115120
  C      -1.152930    0.298440    1.478990
  H      -3.959580   -0.193980    1.555570
  H      -4.312990   -0.438870   -0.178060
  H      -3.103700   -1.475720    0.616600
  H      -1.627580    0.566200    2.420110
  H      -0.916340   -0.762660    1.427500
  H      -0.250770    0.885380    1.327910
--
0 1
  O      -4.126030    3.050420    3.063250
  H      -3.952480    3.477240    2.219960
  H      -4.544150    3.736080    3.588300
units angstrom
no_reorient
symmetry c1
}

set {
scf_type DF
basis aug-cc-pvdz
freeze_core True
guess SAD
}
energy('sapt2+')
--------------------------------------------------------------------------

  //              Dimer HF             //
    Molecular point group: c1
  Charge       = 0
  Multiplicity = 1
  Basis Set: AUG-CC-PVDZ
    Blend: AUG-CC-PVDZ
  Basis Set: (AUG-CC-PVDZ AUX)
    Blend: AUG-CC-PVDZ-JKFIT
  @DF-RHF Final Energy:  -627.62539823092447
    Total Energy =                       -627.6253982309244748
  //            Monomer A HF           //
    Molecular point group: c1
  Multiplicity = 1
  Basis Set: AUG-CC-PVDZ
    Blend: AUG-CC-PVDZ
  Basis Set: (AUG-CC-PVDZ AUX)
    Blend: AUG-CC-PVDZ-JKFIT
  @DF-RHF Final Energy:  -551.58127389945503
    Total Energy =                       -551.5812738994550273
  //            Monomer B HF           //
    Molecular point group: c1

    Geometry (in Angstrom), charge = 0, multiplicity = 1:

       Center              X                  Y                   Z               Mass
    ------------   -----------------  -----------------  -----------------  -----------------
      Gh(C)          -1.009370541066    -1.284345922732    -0.163389504120    12.000000000000
      Gh(O)           0.909749458934    -0.644365922732    -1.887319504120    15.994914619570
      Gh(S)           0.273489458934    -0.111335922732    -0.639789504120    31.972071174400
      Gh(C)           1.384479458934    -0.503975922732     0.724080495880    12.000000000000
      Gh(H)          -1.422170541066    -0.996395922732     0.800660495880     1.007825032230
      Gh(H)          -1.775580541066    -1.241285922732    -0.932969504120     1.007825032230
      Gh(H)          -0.566290541066    -2.278135922732    -0.138309504120     1.007825032230
      Gh(H)           0.909829458934    -0.236215922732     1.665200495880     1.007825032230
      Gh(H)           1.621069458934    -1.565075922732     0.672590495880     1.007825032230
      Gh(H)           2.286639458934     0.082964077268     0.573000495880     1.007825032230
         O           -1.588620541066     2.248004077268     2.308340495880    15.994914619570
         H           -1.415070541066     2.674824077268     1.465050495880     1.007825032230
         H           -2.006740541066     2.933664077268     2.833390495880     1.007825032230

  Charge       = 0
  Multiplicity = 1
  Basis Set: AUG-CC-PVDZ
    Blend: AUG-CC-PVDZ
  Basis Set: (AUG-CC-PVDZ AUX)
    Blend: AUG-CC-PVDZ-JKFIT

    Orbital Energies [Eh]
    ---------------------

    Doubly Occupied:

       1A    -20.577962     2A     -1.355536     3A     -0.716618
       4A     -0.586102     5A     -0.509315

  @DF-RHF Final Energy:   -76.04132787021564

   => Energetics <=

    Nuclear Repulsion Energy =              9.1672944394551070
    One-Electron Energy =                -122.9261760005685886
    Two-Electron Energy =                  37.7175536908978444
    Total Energy =                        -76.0413278702156390

  Dipole Moment: [D]
     X:    -0.4160      Y:     1.8925      Z:    -0.5415     Total:     2.0119

    SAPT Results
  --------------------------------------------------------------------------------------------------------
    Electrostatics                 -2.48881997 [mEh]      -1.56175811 [kcal/mol]      -6.53439593 [kJ/mol]
      Elst10,r                     -2.84783295 [mEh]      -1.78704216 [kcal/mol]      -7.47698439 [kJ/mol]
      Elst12,r                      0.35901299 [mEh]       0.22528405 [kcal/mol]       0.94258846 [kJ/mol]

    Exchange                        0.33172195 [mEh]       0.20815866 [kcal/mol]       0.87093585 [kJ/mol]
      Exch10                        0.24939997 [mEh]       0.15650084 [kcal/mol]       0.65479952 [kJ/mol]
      Exch10(S^2)                   0.24937811 [mEh]       0.15648713 [kcal/mol]       0.65474214 [kJ/mol]
      Exch11(S^2)                  -0.00243977 [mEh]      -0.00153098 [kcal/mol]      -0.00640562 [kJ/mol]
      Exch12(S^2)                   0.08476175 [mEh]       0.05318880 [kcal/mol]       0.22254194 [kJ/mol]

    Induction                      -0.21292638 [mEh]      -0.13361332 [kcal/mol]      -0.55903812 [kJ/mol]
      Ind20,r                      -0.24179690 [mEh]      -0.15172984 [kcal/mol]      -0.63483767 [kJ/mol]
      Ind22                        -0.02085448 [mEh]      -0.01308638 [kcal/mol]      -0.05475343 [kJ/mol]
      Exch-Ind20,r                  0.06906105 [mEh]       0.04333646 [kcal/mol]       0.18131976 [kJ/mol]
      Exch-Ind22                    0.00595637 [mEh]       0.00373768 [kcal/mol]       0.01563845 [kJ/mol]
      delta HF,r (2)               -0.02529242 [mEh]      -0.01587123 [kcal/mol]      -0.06640524 [kJ/mol]

    Dispersion                     -0.93723315 [mEh]      -0.58812268 [kcal/mol]      -2.46070529 [kJ/mol]
      Disp20                       -0.87999788 [mEh]      -0.55220700 [kcal/mol]      -2.31043410 [kJ/mol]
      Disp21                        0.10433038 [mEh]       0.06546830 [kcal/mol]       0.27391938 [kJ/mol]
      Disp22 (SDQ)                 -0.04306016 [mEh]      -0.02702066 [kcal/mol]      -0.11305443 [kJ/mol]
      Disp22 (T)                   -0.13913287 [mEh]      -0.08730720 [kcal/mol]      -0.36529331 [kJ/mol]
      Est. Disp22 (T)              -0.14780790 [mEh]      -0.09275086 [kcal/mol]      -0.38806960 [kJ/mol]
      Exch-Disp20                   0.02930241 [mEh]       0.01838754 [kcal/mol]       0.07693346 [kJ/mol]

  Total HF                         -2.79646125 [mEh]      -1.75480593 [kcal/mol]      -7.34210801 [kJ/mol]
  Total SAPT0                      -3.64715672 [mEh]      -2.28862540 [kcal/mol]      -9.57560866 [kJ/mol]
  Total SAPT2                      -3.22071987 [mEh]      -2.02103223 [kcal/mol]      -8.45599884 [kJ/mol]
  Total SAPT2+                     -3.30725754 [mEh]      -2.07533544 [kcal/mol]      -8.68320349 [kJ/mol]

  Special recipe for scaled SAPT0 (see Manual):
    Electrostatics sSAPT0          -2.84783295 [mEh]      -1.78704216 [kcal/mol]      -7.47698439 [kJ/mol]
    Exchange sSAPT0                 0.24939997 [mEh]       0.15650084 [kcal/mol]       0.65479952 [kJ/mol]
    Induction sSAPT0               -0.19801011 [mEh]      -0.12425322 [kcal/mol]      -0.51987547 [kJ/mol]
    Dispersion sSAPT0              -0.85068776 [mEh]      -0.53381463 [kcal/mol]      -2.23348042 [kJ/mol]
  Total sSAPT0                     -3.64713086 [mEh]      -2.28860917 [kcal/mol]      -9.57554075 [kJ/mol]
  --------------------------------------------------------------------------------------------------------

*** Psi4 exiting successfully. Buy a developer a beer!
