                               Psi4 1.4a2.dev224

  ==> Input File <==

--------------------------------------------------------------------------
#Generated by lconvert.py for sapt job

memory 20 GB

molecule  {
0 1
  C      -3.546780   -0.481930    0.591520
  O      -1.627660    0.158050   -1.132410
  S      -2.263920    0.691080    0.115120
  C      -1.152930    0.298440    1.478990
  H      -3.959580   -0.193980    1.555570
  H      -4.312990   -0.438870   -0.178060
  H      -3.103700   -1.475720    0.616600
  H      -1.627580    0.566200    2.420110
  H      -0.916340   -0.762660    1.427500
  H      -0.250770    0.885380    1.327910
--
0 1
  O      -4.992180    4.607090    4.030820
  H      -4.818640    5.033920    3.187520
  H      -5.410310    5.292760    4.555860
units angstrom
no_reorient
symmetry c1
}

set {
scf_type DF
basis aug-cc-pvdz
freeze_core True
guess SAD
}
energy('sapt2+')
--------------------------------------------------------------------------

  //              Dimer HF             //
    Molecular point group: c1
  Charge       = 0
  Multiplicity = 1
  Basis Set: AUG-CC-PVDZ
    Blend: AUG-CC-PVDZ
  Basis Set: (AUG-CC-PVDZ AUX)
    Blend: AUG-CC-PVDZ-JKFIT
  @DF-RHF Final Energy:  -627.62326643078563
    Total Energy =                       -627.6232664307856339
  //            Monomer A HF           //
    Molecular point group: c1
  Multiplicity = 1
  Basis Set: AUG-CC-PVDZ
    Blend: AUG-CC-PVDZ
  Basis Set: (AUG-CC-PVDZ AUX)
    Blend: AUG-CC-PVDZ-JKFIT
  @DF-RHF Final Energy:  -551.58115929866938
    Total Energy =                       -551.5811592986693768
  //            Monomer B HF           //
    Molecular point group: c1

    Geometry (in Angstrom), charge = 0, multiplicity = 1:

       Center              X                  Y                   Z               Mass
    ------------   -----------------  -----------------  -----------------  -----------------
      Gh(C)          -0.846913348907    -1.576318551459    -0.344868832760    12.000000000000
      Gh(O)           1.072206651093    -0.936338551459    -2.068798832760    15.994914619570
      Gh(S)           0.435946651093    -0.403308551459    -0.821268832760    31.972071174400
      Gh(C)           1.546936651093    -0.795948551459     0.542601167240    12.000000000000
      Gh(H)          -1.259713348907    -1.288368551459     0.619181167240     1.007825032230
      Gh(H)          -1.613123348907    -1.533258551459    -1.114448832760     1.007825032230
      Gh(H)          -0.403833348907    -2.570108551459    -0.319788832760     1.007825032230
      Gh(H)           1.072286651093    -0.528188551459     1.483721167240     1.007825032230
      Gh(H)           1.783526651093    -1.857048551459     0.491111167240     1.007825032230
      Gh(H)           2.449096651093    -0.209008551459     0.391521167240     1.007825032230
         O           -2.292313348907     3.512701448541     3.094431167240    15.994914619570
         H           -2.118773348907     3.939531448541     2.251131167240     1.007825032230
         H           -2.710443348907     4.198371448541     3.619471167240     1.007825032230

  Charge       = 0
  Multiplicity = 1
  Basis Set: AUG-CC-PVDZ
    Blend: AUG-CC-PVDZ
  Basis Set: (AUG-CC-PVDZ AUX)
    Blend: AUG-CC-PVDZ-JKFIT

    Orbital Energies [Eh]
    ---------------------

    Doubly Occupied:

       1A    -20.578009     2A     -1.355489     3A     -0.716599
       4A     -0.586129     5A     -0.509334

  @DF-RHF Final Energy:   -76.04121443755801

   => Energetics <=

    Nuclear Repulsion Energy =              9.1672143898566532
    One-Electron Energy =                -122.9257351386926729
    Two-Electron Energy =                  37.7173063112780227
    Total Energy =                        -76.0412144375579970

  Dipole Moment: [D]
     X:    -0.4157      Y:     1.8912      Z:    -0.5411     Total:     2.0105

    SAPT Results
  --------------------------------------------------------------------------------------------------------
    Electrostatics                 -0.73484741 [mEh]      -0.46112371 [kcal/mol]      -1.92934161 [kJ/mol]
      Elst10,r                     -0.87770714 [mEh]      -0.55076955 [kcal/mol]      -2.30441978 [kJ/mol]
      Elst12,r                      0.14285973 [mEh]       0.08964583 [kcal/mol]       0.37507817 [kJ/mol]

    Exchange                        0.00057898 [mEh]       0.00036331 [kcal/mol]       0.00152010 [kJ/mol]
      Exch10                        0.00034784 [mEh]       0.00021827 [kcal/mol]       0.00091326 [kJ/mol]
      Exch10(S^2)                   0.00034784 [mEh]       0.00021827 [kcal/mol]       0.00091326 [kJ/mol]
      Exch11(S^2)                  -0.00001395 [mEh]      -0.00000875 [kcal/mol]      -0.00003662 [kJ/mol]
      Exch12(S^2)                   0.00024508 [mEh]       0.00015379 [kcal/mol]       0.00064346 [kJ/mol]

    Induction                      -0.01382400 [mEh]      -0.00867469 [kcal/mol]      -0.03629490 [kJ/mol]
      Ind20,r                      -0.01566819 [mEh]      -0.00983194 [kcal/mol]      -0.04113682 [kJ/mol]
      Ind22                         0.00152231 [mEh]       0.00095526 [kcal/mol]       0.00399682 [kJ/mol]
      Exch-Ind20,r                  0.00011367 [mEh]       0.00007133 [kcal/mol]       0.00029843 [kJ/mol]
      Exch-Ind22                   -0.00001104 [mEh]      -0.00000693 [kcal/mol]      -0.00002900 [kJ/mol]
      delta HF,r (2)                0.00021926 [mEh]       0.00013759 [kcal/mol]       0.00057567 [kJ/mol]

    Dispersion                     -0.08100285 [mEh]      -0.05083005 [kcal/mol]      -0.21267295 [kJ/mol]
      Disp20                       -0.07685789 [mEh]      -0.04822906 [kcal/mol]      -0.20179037 [kJ/mol]
      Disp21                        0.01259591 [mEh]       0.00790405 [kcal/mol]       0.03307055 [kJ/mol]
      Disp22 (SDQ)                 -0.00344996 [mEh]      -0.00216488 [kcal/mol]      -0.00905786 [kJ/mol]
      Disp22 (T)                   -0.01317127 [mEh]      -0.00826510 [kcal/mol]      -0.03458116 [kJ/mol]
      Est. Disp22 (T)              -0.01335514 [mEh]      -0.00838048 [kcal/mol]      -0.03506393 [kJ/mol]
      Exch-Disp20                   0.00006424 [mEh]       0.00004031 [kcal/mol]       0.00016865 [kJ/mol]

  Total HF                         -0.89269456 [mEh]      -0.56017429 [kcal/mol]      -2.34376924 [kJ/mol]
  Total SAPT0                      -0.96948821 [mEh]      -0.60836304 [kcal/mol]      -2.54539096 [kJ/mol]
  Total SAPT2                      -0.82488609 [mEh]      -0.51762383 [kcal/mol]      -2.16573812 [kJ/mol]
  Total SAPT2+                     -0.82909528 [mEh]      -0.52026514 [kcal/mol]      -2.17678936 [kJ/mol]

  Special recipe for scaled SAPT0 (see Manual):
    Electrostatics sSAPT0          -0.87770714 [mEh]      -0.55076955 [kcal/mol]      -2.30441978 [kJ/mol]
    Exchange sSAPT0                 0.00034784 [mEh]       0.00021827 [kcal/mol]       0.00091326 [kJ/mol]
    Induction sSAPT0               -0.01533526 [mEh]      -0.00962302 [kcal/mol]      -0.04026272 [kJ/mol]
    Dispersion sSAPT0              -0.07679366 [mEh]      -0.04818875 [kcal/mol]      -0.20162172 [kJ/mol]
  Total sSAPT0                     -0.96948821 [mEh]      -0.60836304 [kcal/mol]      -2.54539096 [kJ/mol]
  --------------------------------------------------------------------------------------------------------

*** Psi4 exiting successfully. Buy a developer a beer!
