                               Psi4 1.4a2.dev224

  ==> Input File <==

--------------------------------------------------------------------------
#Generated by lconvert.py for sapt job

memory 20 GB

molecule  {
0 1
  C      -3.546780   -0.481930    0.591520
  O      -1.627660    0.158050   -1.132410
  S      -2.263920    0.691080    0.115120
  C      -1.152930    0.298440    1.478990
  H      -3.959580   -0.193980    1.555570
  H      -4.312990   -0.438870   -0.178060
  H      -3.103700   -1.475720    0.616600
  H      -1.627580    0.566200    2.420110
  H      -0.916340   -0.762660    1.427500
  H      -0.250770    0.885380    1.327910
--
0 1
  O      -4.559100    3.828760    3.547040
  H      -4.385560    4.255580    2.703740
  H      -4.977230    4.514420    4.072080
units angstrom
no_reorient
symmetry c1
}

set {
scf_type DF
basis aug-cc-pvdz
freeze_core True
guess SAD
}
energy('sapt2+')
--------------------------------------------------------------------------

  //              Dimer HF             //
    Molecular point group: c1
  Charge       = 0
  Multiplicity = 1
  Basis Set: AUG-CC-PVDZ
    Blend: AUG-CC-PVDZ
  Basis Set: (AUG-CC-PVDZ AUX)
    Blend: AUG-CC-PVDZ-JKFIT
  @DF-RHF Final Energy:  -627.62393950008459
    Total Energy =                       -627.6239395000845889
  //            Monomer A HF           //
    Molecular point group: c1
  Multiplicity = 1
  Basis Set: AUG-CC-PVDZ
    Blend: AUG-CC-PVDZ
  Basis Set: (AUG-CC-PVDZ AUX)
    Blend: AUG-CC-PVDZ-JKFIT
  @DF-RHF Final Energy:  -551.58118923067229
    Total Energy =                       -551.5811892306724076
  //            Monomer B HF           //
    Molecular point group: c1

    Geometry (in Angstrom), charge = 0, multiplicity = 1:

       Center              X                  Y                   Z               Mass
    ------------   -----------------  -----------------  -----------------  -----------------
      Gh(C)          -0.928142777843    -1.430333069952    -0.254130001296    12.000000000000
      Gh(O)           0.990977222157    -0.790353069952    -1.978060001296    15.994914619570
      Gh(S)           0.354717222157    -0.257323069952    -0.730530001296    31.972071174400
      Gh(C)           1.465707222157    -0.649963069952     0.633339998704    12.000000000000
      Gh(H)          -1.340942777843    -1.142383069952     0.709919998704     1.007825032230
      Gh(H)          -1.694352777843    -1.387273069952    -1.023710001296     1.007825032230
      Gh(H)          -0.485062777843    -2.424123069952    -0.229050001296     1.007825032230
      Gh(H)           0.991057222157    -0.382203069952     1.574459998704     1.007825032230
      Gh(H)           1.702297222157    -1.711063069952     0.581849998704     1.007825032230
      Gh(H)           2.367867222157    -0.063023069952     0.482259998704     1.007825032230
         O           -1.940462777843     2.880356930048     2.701389998704    15.994914619570
         H           -1.766922777843     3.307176930048     1.858089998704     1.007825032230
         H           -2.358592777843     3.566016930048     3.226429998704     1.007825032230

  Charge       = 0
  Multiplicity = 1
  Basis Set: AUG-CC-PVDZ
    Blend: AUG-CC-PVDZ
  Basis Set: (AUG-CC-PVDZ AUX)
    Blend: AUG-CC-PVDZ-JKFIT

    Orbital Energies [Eh]
    ---------------------

    Doubly Occupied:

       1A    -20.578007     2A     -1.355510     3A     -0.716614
       4A     -0.586129     5A     -0.509336

  @DF-RHF Final Energy:   -76.04124717402787

   => Energetics <=

    Nuclear Repulsion Energy =              9.1672676121212557
    One-Electron Energy =                -122.9258362409518099
    Two-Electron Energy =                  37.7173214548026721
    Total Energy =                        -76.0412471740278875

  Dipole Moment: [D]
     X:    -0.4157      Y:     1.8916      Z:    -0.5417     Total:     2.0110

    SAPT Results
  --------------------------------------------------------------------------------------------------------
    Electrostatics                 -1.24010381 [mEh]      -0.77817689 [kcal/mol]      -3.25589210 [kJ/mol]
      Elst10,r                     -1.46611663 [mEh]      -0.92000208 [kcal/mol]      -3.84928868 [kJ/mol]
      Elst12,r                      0.22601282 [mEh]       0.14182519 [kcal/mol]       0.59339658 [kJ/mol]

    Exchange                        0.01390490 [mEh]       0.00872546 [kcal/mol]       0.03650732 [kJ/mol]
      Exch10                        0.00929239 [mEh]       0.00583106 [kcal/mol]       0.02439716 [kJ/mol]
      Exch10(S^2)                   0.00929233 [mEh]       0.00583103 [kcal/mol]       0.02439701 [kJ/mol]
      Exch11(S^2)                  -0.00022648 [mEh]      -0.00014212 [kcal/mol]      -0.00059461 [kJ/mol]
      Exch12(S^2)                   0.00483899 [mEh]       0.00303651 [kcal/mol]       0.01270478 [kJ/mol]

    Induction                      -0.04402945 [mEh]      -0.02762889 [kcal/mol]      -0.11559929 [kJ/mol]
      Ind20,r                      -0.04752292 [mEh]      -0.02982108 [kcal/mol]      -0.12477141 [kJ/mol]
      Ind22                         0.00237146 [mEh]       0.00148811 [kcal/mol]       0.00622627 [kJ/mol]
      Exch-Ind20,r                  0.00260046 [mEh]       0.00163181 [kcal/mol]       0.00682750 [kJ/mol]
      Exch-Ind22                   -0.00012977 [mEh]      -0.00008143 [kcal/mol]      -0.00034070 [kJ/mol]
      delta HF,r (2)               -0.00134868 [mEh]      -0.00084631 [kcal/mol]      -0.00354095 [kJ/mol]

    Dispersion                     -0.24164841 [mEh]      -0.15163667 [kcal/mol]      -0.63444782 [kJ/mol]
      Disp20                       -0.22717918 [mEh]      -0.14255709 [kcal/mol]      -0.59645886 [kJ/mol]
      Disp21                        0.03341603 [mEh]       0.02096888 [kcal/mol]       0.08773378 [kJ/mol]
      Disp22 (SDQ)                 -0.01054300 [mEh]      -0.00661583 [kcal/mol]      -0.02768065 [kJ/mol]
      Disp22 (T)                   -0.03726605 [mEh]      -0.02338480 [kcal/mol]      -0.09784200 [kJ/mol]
      Est. Disp22 (T)              -0.03867729 [mEh]      -0.02427037 [kcal/mol]      -0.10154722 [kJ/mol]
      Exch-Disp20                   0.00133503 [mEh]       0.00083775 [kcal/mol]       0.00350513 [kJ/mol]

  Total HF                         -1.50309538 [mEh]      -0.94320659 [kcal/mol]      -3.94637639 [kJ/mol]
  Total SAPT0                      -1.72893953 [mEh]      -1.08492594 [kcal/mol]      -4.53933012 [kJ/mol]
  Total SAPT2                      -1.49607250 [mEh]      -0.93879967 [kcal/mol]      -3.92793781 [kJ/mol]
  Total SAPT2+                     -1.51187676 [mEh]      -0.94871699 [kcal/mol]      -3.96943189 [kJ/mol]

  Special recipe for scaled SAPT0 (see Manual):
    Electrostatics sSAPT0          -1.46611663 [mEh]      -0.92000208 [kcal/mol]      -3.84928868 [kJ/mol]
    Exchange sSAPT0                 0.00929239 [mEh]       0.00583106 [kcal/mol]       0.02439716 [kJ/mol]
    Induction sSAPT0               -0.04627114 [mEh]      -0.02903558 [kcal/mol]      -0.12148486 [kJ/mol]
    Dispersion sSAPT0              -0.22584415 [mEh]      -0.14171934 [kcal/mol]      -0.59295373 [kJ/mol]
  Total sSAPT0                     -1.72893953 [mEh]      -1.08492594 [kcal/mol]      -4.53933012 [kJ/mol]
  --------------------------------------------------------------------------------------------------------

*** Psi4 exiting successfully. Buy a developer a beer!
