                               Psi4 1.4a2.dev224

  ==> Input File <==

--------------------------------------------------------------------------
#Generated by lconvert.py for sapt job

memory 20 GB

molecule  {
0 1
  C      -3.228950   -0.562410    0.903880
  O      -1.614570    1.539640    0.825440
  S      -2.022170    0.445430    1.779810
  C      -0.684770   -0.757880    1.728830
  H      -3.489850   -1.426690    1.511490
  H      -4.097340    0.069480    0.736340
  H      -2.798720   -0.860590   -0.050250
  H      -0.966690   -1.647620    2.288310
  H      -0.479520   -0.990640    0.685940
  H       0.182770   -0.287970    2.183830
--
0 1
  O      -5.098430    2.780970   -0.674940
  H      -4.167230    2.708690   -0.412630
  H      -5.240270    3.722760   -0.778910
units angstrom
no_reorient
symmetry c1
}

set {
scf_type DF
basis aug-cc-pvdz
freeze_core True
guess SAD
}
energy('sapt2+')
--------------------------------------------------------------------------

  //              Dimer HF             //
    Molecular point group: c1
  Charge       = 0
  Multiplicity = 1
  Basis Set: AUG-CC-PVDZ
    Blend: AUG-CC-PVDZ
  Basis Set: (AUG-CC-PVDZ AUX)
    Blend: AUG-CC-PVDZ-JKFIT
  @DF-RHF Final Energy:  -627.62776135716922
    Total Energy =                       -627.6277613571692200
  //            Monomer A HF           //
    Molecular point group: c1
  Multiplicity = 1
  Basis Set: AUG-CC-PVDZ
    Blend: AUG-CC-PVDZ
  Basis Set: (AUG-CC-PVDZ AUX)
    Blend: AUG-CC-PVDZ-JKFIT
  @DF-RHF Final Energy:  -551.58160754838093
    Total Energy =                       -551.5816075483809300
  //            Monomer B HF           //
    Molecular point group: c1

    Geometry (in Angstrom), charge = 0, multiplicity = 1:

       Center              X                  Y                   Z               Mass
    ------------   -----------------  -----------------  -----------------  -----------------
      Gh(C)          -0.727368800844    -1.278926319685    -0.107490227450    12.000000000000
      Gh(O)           0.887011199156     0.823123680315    -0.185930227450    15.994914619570
      Gh(S)           0.479411199156    -0.271086319685     0.768439772550    31.972071174400
      Gh(C)           1.816811199156    -1.474396319685     0.717459772550    12.000000000000
      Gh(H)          -0.988268800844    -2.143206319685     0.500119772550     1.007825032230
      Gh(H)          -1.595758800844    -0.647036319685    -0.275030227450     1.007825032230
      Gh(H)          -0.297138800844    -1.577106319685    -1.061620227450     1.007825032230
      Gh(H)           1.534891199156    -2.364136319685     1.276939772550     1.007825032230
      Gh(H)           2.022061199156    -1.707156319685    -0.325430227450     1.007825032230
      Gh(H)           2.684351199156    -1.004486319685     1.172459772550     1.007825032230
         O           -2.596848800844     2.064453680315    -1.686310227450    15.994914619570
         H           -1.665648800844     1.992173680315    -1.424000227450     1.007825032230
         H           -2.738688800844     3.006243680315    -1.790280227450     1.007825032230

  Charge       = 0
  Multiplicity = 1
  Basis Set: AUG-CC-PVDZ
    Blend: AUG-CC-PVDZ
  Basis Set: (AUG-CC-PVDZ AUX)
    Blend: AUG-CC-PVDZ-JKFIT

    Orbital Energies [Eh]
    ---------------------

    Doubly Occupied:

       1A    -20.578509     2A     -1.353445     3A     -0.714865
       4A     -0.584953     5A     -0.508937

  @DF-RHF Final Energy:   -76.04099472337862

   => Energetics <=

    Nuclear Repulsion Energy =              9.1303103833403352
    One-Electron Energy =                -122.8611893080882425
    Two-Electron Energy =                  37.6898842013692956
    Total Energy =                        -76.0409947233786170

  Dipole Moment: [D]
     X:     1.3364      Y:     1.4802      Z:     0.2699     Total:     2.0124

    SAPT Results
  --------------------------------------------------------------------------------------------------------
    Electrostatics                 -4.45039941 [mEh]      -2.79266779 [kcal/mol]     -11.68452204 [kJ/mol]
      Elst10,r                     -5.16493661 [mEh]      -3.24104666 [kcal/mol]     -13.56053921 [kJ/mol]
      Elst12,r                      0.71453720 [mEh]       0.44837886 [kcal/mol]       1.87601716 [kJ/mol]

    Exchange                        0.56587489 [mEh]       0.35509186 [kcal/mol]       1.48570433 [kJ/mol]
      Exch10                        0.41863658 [mEh]       0.26269842 [kcal/mol]       1.09913018 [kJ/mol]
      Exch10(S^2)                   0.41853517 [mEh]       0.26263478 [kcal/mol]       1.09886392 [kJ/mol]
      Exch11(S^2)                  -0.00142152 [mEh]      -0.00089202 [kcal/mol]      -0.00373221 [kJ/mol]
      Exch12(S^2)                   0.14865984 [mEh]       0.09328546 [kcal/mol]       0.39030635 [kJ/mol]

    Induction                      -0.44118260 [mEh]      -0.27684626 [kcal/mol]      -1.15832476 [kJ/mol]
      Ind20,r                      -0.43738903 [mEh]      -0.27446576 [kcal/mol]      -1.14836474 [kJ/mol]
      Ind22                        -0.03471560 [mEh]      -0.02178437 [kcal/mol]      -0.09114579 [kJ/mol]
      Exch-Ind20,r                  0.07960650 [mEh]       0.04995383 [kcal/mol]       0.20900684 [kJ/mol]
      Exch-Ind22                    0.00631837 [mEh]       0.00396484 [kcal/mol]       0.01658889 [kJ/mol]
      delta HF,r (2)               -0.05500284 [mEh]      -0.03451481 [kcal/mol]      -0.14440995 [kJ/mol]

    Dispersion                     -1.13824716 [mEh]      -0.71426087 [kcal/mol]      -2.98846750 [kJ/mol]
      Disp20                       -1.03210364 [mEh]      -0.64765481 [kcal/mol]      -2.70978774 [kJ/mol]
      Disp21                        0.08870235 [mEh]       0.05566156 [kcal/mol]       0.23288798 [kJ/mol]
      Disp22 (SDQ)                 -0.04813971 [mEh]      -0.03020812 [kcal/mol]      -0.12639079 [kJ/mol]
      Disp22 (T)                   -0.17624224 [mEh]      -0.11059368 [kcal/mol]      -0.46272395 [kJ/mol]
      Est. Disp22 (T)              -0.18680846 [mEh]      -0.11722408 [kcal/mol]      -0.49046553 [kJ/mol]
      Exch-Disp20                   0.04010231 [mEh]       0.02516458 [kcal/mol]       0.10528859 [kJ/mol]

  Total HF                         -5.15908541 [mEh]      -3.23737497 [kcal/mol]     -13.54517688 [kJ/mol]
  Total SAPT0                      -6.15108675 [mEh]      -3.85986521 [kcal/mol]     -16.14967603 [kJ/mol]
  Total SAPT2                      -5.31770846 [mEh]      -3.33691243 [kcal/mol]     -13.96164163 [kJ/mol]
  Total SAPT2+                     -5.46395427 [mEh]      -3.42868307 [kcal/mol]     -14.34560997 [kJ/mol]

  Special recipe for scaled SAPT0 (see Manual):
    Electrostatics sSAPT0          -5.16493661 [mEh]      -3.24104666 [kcal/mol]     -13.56053921 [kJ/mol]
    Exchange sSAPT0                 0.41863658 [mEh]       0.26269842 [kcal/mol]       1.09913018 [kJ/mol]
    Induction sSAPT0               -0.41272749 [mEh]      -0.25899041 [kcal/mol]      -1.08361589 [kJ/mol]
    Dispersion sSAPT0              -0.99197218 [mEh]      -0.62247194 [kcal/mol]      -2.60442260 [kJ/mol]
  Total sSAPT0                     -6.15099971 [mEh]      -3.85981059 [kcal/mol]     -16.14944751 [kJ/mol]
  --------------------------------------------------------------------------------------------------------

*** Psi4 exiting successfully. Buy a developer a beer!
