                               Psi4 1.4a2.dev224

  ==> Input File <==

--------------------------------------------------------------------------
#Generated by lconvert.py for sapt job

memory 20 GB

molecule  {
0 1
  C      -3.228950   -0.562410    0.903880
  O      -1.614570    1.539640    0.825440
  S      -2.022170    0.445430    1.779810
  C      -0.684770   -0.757880    1.728830
  H      -3.489850   -1.426690    1.511490
  H      -4.097340    0.069480    0.736340
  H      -2.798720   -0.860590   -0.050250
  H      -0.966690   -1.647620    2.288310
  H      -0.479520   -0.990640    0.685940
  H       0.182770   -0.287970    2.183830
--
0 1
  O      -4.619800    2.561780   -0.442800
  H      -3.688600    2.489490   -0.180490
  H      -4.761650    3.503560   -0.546770
units angstrom
no_reorient
symmetry c1
}

set {
scf_type DF
basis aug-cc-pvdz
freeze_core True
guess SAD
}
energy('sapt2+')
--------------------------------------------------------------------------

  //              Dimer HF             //
    Molecular point group: c1
  Charge       = 0
  Multiplicity = 1
  Basis Set: AUG-CC-PVDZ
    Blend: AUG-CC-PVDZ
  Basis Set: (AUG-CC-PVDZ AUX)
    Blend: AUG-CC-PVDZ-JKFIT
  @DF-RHF Final Energy:  -627.63113393609558
    Total Energy =                       -627.6311339360956936
  //            Monomer A HF           //
    Molecular point group: c1
  Multiplicity = 1
  Basis Set: AUG-CC-PVDZ
    Blend: AUG-CC-PVDZ
  Basis Set: (AUG-CC-PVDZ AUX)
    Blend: AUG-CC-PVDZ-JKFIT
  @DF-RHF Final Energy:  -551.58172823335940
    Total Energy =                       -551.5817282333593994
  //            Monomer B HF           //
    Molecular point group: c1

    Geometry (in Angstrom), charge = 0, multiplicity = 1:

       Center              X                  Y                   Z               Mass
    ------------   -----------------  -----------------  -----------------  -----------------
      Gh(C)          -0.817141582126    -1.237814355530    -0.151030911927    12.000000000000
      Gh(O)           0.797238417874     0.864235644470    -0.229470911927    15.994914619570
      Gh(S)           0.389638417874    -0.229974355530     0.724899088073    31.972071174400
      Gh(C)           1.727038417874    -1.433284355530     0.673919088073    12.000000000000
      Gh(H)          -1.078041582126    -2.102094355530     0.456579088073     1.007825032230
      Gh(H)          -1.685531582126    -0.605924355530    -0.318570911927     1.007825032230
      Gh(H)          -0.386911582126    -1.535994355530    -1.105160911927     1.007825032230
      Gh(H)           1.445118417874    -2.323024355530     1.233399088073     1.007825032230
      Gh(H)           1.932288417874    -1.666044355530    -0.368970911927     1.007825032230
      Gh(H)           2.594578417874    -0.963374355530     1.128919088073     1.007825032230
         O           -2.207991582126     1.886375644470    -1.497710911927    15.994914619570
         H           -1.276791582126     1.814085644470    -1.235400911927     1.007825032230
         H           -2.349841582126     2.828155644470    -1.601680911927     1.007825032230

  Charge       = 0
  Multiplicity = 1
  Basis Set: AUG-CC-PVDZ
    Blend: AUG-CC-PVDZ
  Basis Set: (AUG-CC-PVDZ AUX)
    Blend: AUG-CC-PVDZ-JKFIT

    Orbital Energies [Eh]
    ---------------------

    Doubly Occupied:

       1A    -20.578440     2A     -1.353426     3A     -0.714867
       4A     -0.584922     5A     -0.508888

  @DF-RHF Final Energy:   -76.04108664478002

   => Energetics <=

    Nuclear Repulsion Energy =              9.1303439277118930
    One-Electron Energy =                -122.8617742665024650
    Two-Electron Energy =                  37.6903436940105578
    Total Energy =                        -76.0410866447800231

  Dipole Moment: [D]
     X:     1.3365      Y:     1.4790      Z:     0.2703     Total:     2.0116

    SAPT Results
  --------------------------------------------------------------------------------------------------------
    Electrostatics                 -8.49648714 [mEh]      -5.33162617 [kcal/mol]     -22.30752391 [kJ/mol]
      Elst10,r                     -9.55156060 [mEh]      -5.99369476 [kcal/mol]     -25.07761889 [kJ/mol]
      Elst12,r                      1.05507346 [mEh]       0.66206859 [kcal/mol]       2.77009498 [kJ/mol]

    Exchange                        3.40998734 [mEh]       2.13979936 [kcal/mol]       8.95292054 [kJ/mol]
      Exch10                        2.65890317 [mEh]       1.66848693 [kcal/mol]       6.98094930 [kJ/mol]
      Exch10(S^2)                   2.65568039 [mEh]       1.66646460 [kcal/mol]       6.97248790 [kJ/mol]
      Exch11(S^2)                   0.00045065 [mEh]       0.00028279 [kcal/mol]       0.00118318 [kJ/mol]
      Exch12(S^2)                   0.75063353 [mEh]       0.47102965 [kcal/mol]       1.97078806 [kJ/mol]

    Induction                      -1.57633003 [mEh]      -0.98916203 [kcal/mol]      -4.13865394 [kJ/mol]
      Ind20,r                      -1.65487393 [mEh]      -1.03844907 [kcal/mol]      -4.34487091 [kJ/mol]
      Ind22                        -0.22901625 [mEh]      -0.14370986 [kcal/mol]      -0.60128208 [kJ/mol]
      Exch-Ind20,r                  0.57148165 [mEh]       0.35861015 [kcal/mol]       1.50042486 [kJ/mol]
      Exch-Ind22                    0.07908674 [mEh]       0.04962768 [kcal/mol]       0.20764220 [kJ/mol]
      delta HF,r (2)               -0.34300824 [mEh]      -0.21524092 [kcal/mol]      -0.90056802 [kJ/mol]

    Dispersion                     -2.73160866 [mEh]      -1.71411031 [kcal/mol]      -7.17183755 [kJ/mol]
      Disp20                       -2.56771703 [mEh]      -1.61126676 [kcal/mol]      -6.74154013 [kJ/mol]
      Disp21                        0.20784386 [mEh]       0.13042399 [kcal/mol]       0.54569397 [kJ/mol]
      Disp22 (SDQ)                 -0.13495607 [mEh]      -0.08468621 [kcal/mol]      -0.35432710 [kJ/mol]
      Disp22 (T)                   -0.41808302 [mEh]      -0.26235106 [kcal/mol]      -1.09767683 [kJ/mol]
      Est. Disp22 (T)              -0.45930075 [mEh]      -0.28821557 [kcal/mol]      -1.20589395 [kJ/mol]
      Exch-Disp20                   0.22252133 [mEh]       0.13963424 [kcal/mol]       0.58422967 [kJ/mol]

  Total HF                         -8.31905796 [mEh]      -5.22028768 [kcal/mol]     -21.84168365 [kJ/mol]
  Total SAPT0                     -10.66425366 [mEh]      -6.69192020 [kcal/mol]     -27.99899412 [kJ/mol]
  Total SAPT2                      -9.00802553 [mEh]      -5.65262136 [kcal/mol]     -23.65056777 [kJ/mol]
  Total SAPT2+                     -9.39443849 [mEh]      -5.89509915 [kcal/mol]     -24.66509485 [kJ/mol]

  Special recipe for scaled SAPT0 (see Manual):
    Electrostatics sSAPT0          -9.55156060 [mEh]      -5.99369476 [kcal/mol]     -25.07761889 [kJ/mol]
    Exchange sSAPT0                 2.65890317 [mEh]       1.66848693 [kcal/mol]       6.98094930 [kJ/mol]
    Induction sSAPT0               -1.42431745 [mEh]      -0.89377269 [kcal/mol]      -3.73954495 [kJ/mol]
    Dispersion sSAPT0              -2.34438460 [mEh]      -1.47112355 [kcal/mol]      -6.15518092 [kJ/mol]
  Total sSAPT0                    -10.66135948 [mEh]      -6.69010408 [kcal/mol]     -27.99139546 [kJ/mol]
  --------------------------------------------------------------------------------------------------------

*** Psi4 exiting successfully. Buy a developer a beer!
