                               Psi4 1.4a2.dev224

  ==> Input File <==

--------------------------------------------------------------------------
#Generated by lconvert.py for sapt job

memory 20 GB

molecule  {
0 1
  C      -3.228950   -0.562410    0.903880
  O      -1.614570    1.539640    0.825440
  S      -2.022170    0.445430    1.779810
  C      -0.684770   -0.757880    1.728830
  H      -3.489850   -1.426690    1.511490
  H      -4.097340    0.069480    0.736340
  H      -2.798720   -0.860590   -0.050250
  H      -0.966690   -1.647620    2.288310
  H      -0.479520   -0.990640    0.685940
  H       0.182770   -0.287970    2.183830
--
0 1
  O      -5.577050    3.000170   -0.907080
  H      -4.645850    2.927880   -0.644770
  H      -5.718890    3.941950   -1.011050
units angstrom
no_reorient
symmetry c1
}

set {
scf_type DF
basis aug-cc-pvdz
freeze_core True
guess SAD
}
energy('sapt2+')
--------------------------------------------------------------------------

  //              Dimer HF             //
    Molecular point group: c1
  Charge       = 0
  Multiplicity = 1
  Basis Set: AUG-CC-PVDZ
    Blend: AUG-CC-PVDZ
  Basis Set: (AUG-CC-PVDZ AUX)
    Blend: AUG-CC-PVDZ-JKFIT
  @DF-RHF Final Energy:  -627.62570573790003
    Total Energy =                       -627.6257057379000344
  //            Monomer A HF           //
    Molecular point group: c1
  Multiplicity = 1
  Basis Set: AUG-CC-PVDZ
    Blend: AUG-CC-PVDZ
  Basis Set: (AUG-CC-PVDZ AUX)
    Blend: AUG-CC-PVDZ-JKFIT
  @DF-RHF Final Energy:  -551.58156502054362
    Total Energy =                       -551.5815650205436214
  //            Monomer B HF           //
    Molecular point group: c1

    Geometry (in Angstrom), charge = 0, multiplicity = 1:

       Center              X                  Y                   Z               Mass
    ------------   -----------------  -----------------  -----------------  -----------------
      Gh(C)          -0.637597790229    -1.320039739642    -0.063949542974    12.000000000000
      Gh(O)           0.976782209771     0.782010260358    -0.142389542974    15.994914619570
      Gh(S)           0.569182209771    -0.312199739642     0.811980457026    31.972071174400
      Gh(C)           1.906582209771    -1.515509739642     0.761000457026    12.000000000000
      Gh(H)          -0.898497790229    -2.184319739642     0.543660457026     1.007825032230
      Gh(H)          -1.505987790229    -0.688149739642    -0.231489542974     1.007825032230
      Gh(H)          -0.207367790229    -1.618219739642    -1.018079542974     1.007825032230
      Gh(H)           1.624662209771    -2.405249739642     1.320480457026     1.007825032230
      Gh(H)           2.111832209771    -1.748269739642    -0.281889542974     1.007825032230
      Gh(H)           2.774122209771    -1.045599739642     1.216000457026     1.007825032230
         O           -2.985697790229     2.242540260358    -1.874909542974    15.994914619570
         H           -2.054497790229     2.170250260358    -1.612599542974     1.007825032230
         H           -3.127537790229     3.184320260358    -1.978879542974     1.007825032230

  Charge       = 0
  Multiplicity = 1
  Basis Set: AUG-CC-PVDZ
    Blend: AUG-CC-PVDZ
  Basis Set: (AUG-CC-PVDZ AUX)
    Blend: AUG-CC-PVDZ-JKFIT

    Orbital Energies [Eh]
    ---------------------

    Doubly Occupied:

       1A    -20.578536     2A     -1.353430     3A     -0.714880
       4A     -0.584975     5A     -0.508959

  @DF-RHF Final Energy:   -76.04092510746220

   => Energetics <=

    Nuclear Repulsion Energy =              9.1303523694609137
    One-Electron Energy =                -122.8609938096096812
    Two-Electron Energy =                  37.6897163326865723
    Total Energy =                        -76.0409251074622006

  Dipole Moment: [D]
     X:     1.3363      Y:     1.4798      Z:     0.2691     Total:     2.0119

    SAPT Results
  --------------------------------------------------------------------------------------------------------
    Electrostatics                 -2.65522369 [mEh]      -1.66617802 [kcal/mol]      -6.97128885 [kJ/mol]
      Elst10,r                     -3.13392629 [mEh]      -1.96656844 [kcal/mol]      -8.22812234 [kJ/mol]
      Elst12,r                      0.47870259 [mEh]       0.30039041 [kcal/mol]       1.25683349 [kJ/mol]

    Exchange                        0.09193303 [mEh]       0.05768885 [kcal/mol]       0.24137013 [kJ/mol]
      Exch10                        0.06474769 [mEh]       0.04062979 [kcal/mol]       0.16999503 [kJ/mol]
      Exch10(S^2)                   0.06474438 [mEh]       0.04062771 [kcal/mol]       0.16998635 [kJ/mol]
      Exch11(S^2)                  -0.00036554 [mEh]      -0.00022938 [kcal/mol]      -0.00095971 [kJ/mol]
      Exch12(S^2)                   0.02755088 [mEh]       0.01728844 [kcal/mol]       0.07233481 [kJ/mol]

    Induction                      -0.14948335 [mEh]      -0.09380222 [kcal/mol]      -0.39246849 [kJ/mol]
      Ind20,r                      -0.14752783 [mEh]      -0.09257511 [kcal/mol]      -0.38733427 [kJ/mol]
      Ind22                        -0.00330730 [mEh]      -0.00207536 [kcal/mol]      -0.00868331 [kJ/mol]
      Exch-Ind20,r                  0.01138521 [mEh]       0.00714433 [kcal/mol]       0.02989187 [kJ/mol]
      Exch-Ind22                    0.00025524 [mEh]       0.00016016 [kcal/mol]       0.00067012 [kJ/mol]
      delta HF,r (2)               -0.01028867 [mEh]      -0.00645624 [kcal/mol]      -0.02701290 [kJ/mol]

    Dispersion                     -0.51076747 [mEh]      -0.32051142 [kcal/mol]      -1.34101980 [kJ/mol]
      Disp20                       -0.46099287 [mEh]      -0.28927739 [kcal/mol]      -1.21033661 [kJ/mol]
      Disp21                        0.04489951 [mEh]       0.02817487 [kcal/mol]       0.11788365 [kJ/mol]
      Disp22 (SDQ)                 -0.01840264 [mEh]      -0.01154783 [kcal/mol]      -0.04831614 [kJ/mol]
      Disp22 (T)                   -0.08001232 [mEh]      -0.05020849 [kcal/mol]      -0.21007231 [kJ/mol]
      Est. Disp22 (T)              -0.08345503 [mEh]      -0.05236882 [kcal/mol]      -0.21911114 [kJ/mol]
      Exch-Disp20                   0.00718356 [mEh]       0.00450775 [kcal/mol]       0.01886043 [kJ/mol]

  Total HF                         -3.21560989 [mEh]      -2.01782567 [kcal/mol]      -8.44258261 [kJ/mol]
  Total SAPT0                      -3.66941920 [mEh]      -2.30259531 [kcal/mol]      -9.63405879 [kJ/mol]
  Total SAPT2                      -3.16658333 [mEh]      -1.98706104 [kcal/mol]      -8.31386338 [kJ/mol]
  Total SAPT2+                     -3.22354149 [mEh]      -2.02280282 [kcal/mol]      -8.46340701 [kJ/mol]

  Special recipe for scaled SAPT0 (see Manual):
    Electrostatics sSAPT0          -3.13392629 [mEh]      -1.96656844 [kcal/mol]      -8.22812234 [kJ/mol]
    Exchange sSAPT0                 0.06474769 [mEh]       0.04062979 [kcal/mol]       0.16999503 [kJ/mol]
    Induction sSAPT0               -0.14642955 [mEh]      -0.09188593 [kcal/mol]      -0.38445073 [kJ/mol]
    Dispersion sSAPT0              -0.45380821 [mEh]      -0.28476895 [kcal/mol]      -1.19147329 [kJ/mol]
  Total sSAPT0                     -3.66941636 [mEh]      -2.30259353 [kcal/mol]      -9.63405132 [kJ/mol]
  --------------------------------------------------------------------------------------------------------

*** Psi4 exiting successfully. Buy a developer a beer!
