                               Psi4 1.4a2.dev224

  ==> Input File <==

--------------------------------------------------------------------------
#Generated by lconvert.py for sapt job

memory 20 GB

molecule  {
0 1
  C      -2.107810   -0.338730   -0.096960
  O      -1.410460    1.092430    2.026580
  S      -2.470810    0.107210    1.605410
  C      -1.971690   -1.467620    2.329000
  H      -2.738710   -1.173950   -0.395750
  H      -2.337850    0.544110   -0.687880
  H      -1.051820   -0.596400   -0.159100
  H      -2.624140   -2.262990    1.973910
  H      -0.934250   -1.654180    2.058430
  H      -2.060910   -1.363510    3.406940
--
0 1
  C      -3.367920    5.595210    1.190710
  O      -3.572270    4.206150   -1.062860
  S      -3.080420    5.547580   -0.587530
  C      -1.286480    5.416450   -0.471360
  H      -2.962330    6.520950    1.595590
  H      -4.445430    5.569650    1.331570
  H      -2.893800    4.720880    1.634540
  H      -0.884990    6.323280   -0.022330
  H      -1.053890    4.534580    0.124000
  H      -0.914110    5.310840   -1.487230
units angstrom
no_reorient
symmetry c1
}

set {
scf_type DF
basis aug-cc-pvdz
freeze_core True
guess SAD
}
energy('sapt2+')
--------------------------------------------------------------------------

  //              Dimer HF             //
    Molecular point group: c1
  Charge       = 0
  Multiplicity = 1
  Basis Set: AUG-CC-PVDZ
    Blend: AUG-CC-PVDZ
  Basis Set: (AUG-CC-PVDZ AUX)
    Blend: AUG-CC-PVDZ-JKFIT
  @DF-RHF Final Energy: -1103.16691242020647
    Total Energy =                      -1103.1669124202064722
  //            Monomer A HF           //
    Molecular point group: c1
  Multiplicity = 1
  Basis Set: AUG-CC-PVDZ
    Blend: AUG-CC-PVDZ
  Basis Set: (AUG-CC-PVDZ AUX)
    Blend: AUG-CC-PVDZ-JKFIT
  @DF-RHF Final Energy:  -551.58146837784136
    Total Energy =                       -551.5814683778413610
  //            Monomer B HF           //
    Molecular point group: c1

    Geometry (in Angstrom), charge = 0, multiplicity = 1:

       Center              X                  Y                   Z               Mass
    ------------   -----------------  -----------------  -----------------  -----------------
      Gh(C)           0.373070803162    -2.919613864386    -0.691860522264    12.000000000000
      Gh(O)           1.070420803162    -1.488453864386     1.431679477736    15.994914619570
      Gh(S)           0.010070803162    -2.473673864386     1.010509477736    31.972071174400
      Gh(C)           0.509190803162    -4.048503864386     1.734099477736    12.000000000000
      Gh(H)          -0.257829196838    -3.754833864386    -0.990650522264     1.007825032230
      Gh(H)           0.143030803162    -2.036773864386    -1.282780522264     1.007825032230
      Gh(H)           1.429060803162    -3.177283864386    -0.754000522264     1.007825032230
      Gh(H)          -0.143259196838    -4.843873864386     1.379009477736     1.007825032230
      Gh(H)           1.546630803162    -4.235063864386     1.463529477736     1.007825032230
      Gh(H)           0.419970803162    -3.944393864386     2.812039477736     1.007825032230
         C           -0.887039196838     3.014326135614     0.595809477736    12.000000000000
         O           -1.091389196838     1.625266135614    -1.657760522264    15.994914619570
         S           -0.599539196838     2.966696135614    -1.182430522264    31.972071174400
         C            1.194400803162     2.835566135614    -1.066260522264    12.000000000000
         H           -0.481449196838     3.940066135614     1.000689477736     1.007825032230
         H           -1.964549196838     2.988766135614     0.736669477736     1.007825032230
         H           -0.412919196838     2.139996135614     1.039639477736     1.007825032230
         H            1.595890803162     3.742396135614    -0.617230522264     1.007825032230
         H            1.426990803162     1.953696135614    -0.470900522264     1.007825032230
         H            1.566770803162     2.729956135614    -2.082130522264     1.007825032230

  Charge       = 0
  Multiplicity = 1
  Basis Set: AUG-CC-PVDZ
    Blend: AUG-CC-PVDZ
  Basis Set: (AUG-CC-PVDZ AUX)
    Blend: AUG-CC-PVDZ-JKFIT

    Orbital Energies [Eh]
    ---------------------

    Doubly Occupied:

       1A    -92.076484     2A    -20.511085     3A    -11.270799
       4A    -11.270780     5A     -9.065783     6A     -6.748135
       7A     -6.747425     8A     -6.745339     9A     -1.335011
      10A     -1.070989    11A     -0.979349    12A     -0.820088
      13A     -0.648551    14A     -0.630106    15A     -0.623341
      16A     -0.588318    17A     -0.561172    18A     -0.545379
      19A     -0.511813    20A     -0.414648    21A     -0.367085

  @DF-RHF Final Energy:  -551.58131635610005

   => Energetics <=

    Nuclear Repulsion Energy =            184.2917272129500077
    One-Electron Energy =               -1124.6827230944227267
    Two-Electron Energy =                 388.8096795253726441
    Total Energy =                       -551.5813163561000465

  Dipole Moment: [D]
     X:     2.4867      Y:     2.8947      Z:     2.8108     Total:     4.7396

    SAPT Results
  --------------------------------------------------------------------------------------------------------
    Electrostatics                 -3.03360445 [mEh]      -1.90361553 [kcal/mol]      -7.96472738 [kJ/mol]
      Elst10,r                     -3.83643140 [mEh]      -2.40739705 [kcal/mol]     -10.07254926 [kJ/mol]
      Elst12,r                      0.80282696 [mEh]       0.50378152 [kcal/mol]       2.10782188 [kJ/mol]

    Exchange                        0.13895544 [mEh]       0.08719585 [kcal/mol]       0.36482745 [kJ/mol]
      Exch10                        0.08801374 [mEh]       0.05522946 [kcal/mol]       0.23108005 [kJ/mol]
      Exch10(S^2)                   0.08800700 [mEh]       0.05522523 [kcal/mol]       0.23106236 [kJ/mol]
      Exch11(S^2)                  -0.00360443 [mEh]      -0.00226181 [kcal/mol]      -0.00946343 [kJ/mol]
      Exch12(S^2)                   0.05454613 [mEh]       0.03422821 [kcal/mol]       0.14321084 [kJ/mol]

    Induction                      -0.34508118 [mEh]      -0.21654171 [kcal/mol]      -0.90601050 [kJ/mol]
      Ind20,r                      -0.37958617 [mEh]      -0.23819392 [kcal/mol]      -0.99660335 [kJ/mol]
      Ind22                         0.03613857 [mEh]       0.02267730 [kcal/mol]       0.09488181 [kJ/mol]
      Exch-Ind20,r                  0.02049409 [mEh]       0.01286024 [kcal/mol]       0.05380724 [kJ/mol]
      Exch-Ind22                   -0.00195114 [mEh]      -0.00122436 [kcal/mol]      -0.00512273 [kJ/mol]
      delta HF,r (2)               -0.02017653 [mEh]      -0.01266096 [kcal/mol]      -0.05297347 [kJ/mol]

    Dispersion                     -1.08064269 [mEh]      -0.67811352 [kcal/mol]      -2.83722698 [kJ/mol]
      Disp20                       -1.00825358 [mEh]      -0.63268867 [kcal/mol]      -2.64716940 [kJ/mol]
      Disp21                        0.19237699 [mEh]       0.12071839 [kcal/mol]       0.50508573 [kJ/mol]
      Disp22 (SDQ)                 -0.07771674 [mEh]      -0.04876799 [kcal/mol]      -0.20404527 [kJ/mol]
      Disp22 (T)                   -0.19544478 [mEh]      -0.12264345 [kcal/mol]      -0.51314020 [kJ/mol]
      Est. Disp22 (T)              -0.20204077 [mEh]      -0.12678250 [kcal/mol]      -0.53045796 [kJ/mol]
      Exch-Disp20                   0.01499140 [mEh]       0.00940725 [kcal/mol]       0.03935991 [kJ/mol]

  Total HF                         -4.12768627 [mEh]      -2.59016224 [kcal/mol]     -10.83723880 [kJ/mol]
  Total SAPT0                      -5.12094844 [mEh]      -3.21344366 [kcal/mol]     -13.44504828 [kJ/mol]
  Total SAPT2                      -4.23299236 [mEh]      -2.65624281 [kcal/mol]     -11.11371991 [kJ/mol]
  Total SAPT2+                     -4.32037287 [mEh]      -2.71107491 [kcal/mol]     -11.34313741 [kJ/mol]

  Special recipe for scaled SAPT0 (see Manual):
    Electrostatics sSAPT0          -3.83643140 [mEh]      -2.40739705 [kcal/mol]     -10.07254926 [kJ/mol]
    Exchange sSAPT0                 0.08801374 [mEh]       0.05522946 [kcal/mol]       0.23108005 [kJ/mol]
    Induction sSAPT0               -0.37926390 [mEh]      -0.23799169 [kcal/mol]      -0.99575722 [kJ/mol]
    Dispersion sSAPT0              -0.99325873 [mEh]      -0.62327927 [kcal/mol]      -2.60780045 [kJ/mol]
  Total sSAPT0                     -5.12094029 [mEh]      -3.21343855 [kcal/mol]     -13.44502688 [kJ/mol]
  --------------------------------------------------------------------------------------------------------

*** Psi4 exiting successfully. Buy a developer a beer!
