                               Psi4 1.4a2.dev224

  ==> Input File <==

--------------------------------------------------------------------------
#Generated by lconvert.py for sapt job

memory 20 GB

molecule  {
0 1
  C      -2.107810   -0.338730   -0.096960
  O      -1.410460    1.092430    2.026580
  S      -2.470810    0.107210    1.605410
  C      -1.971690   -1.467620    2.329000
  H      -2.738710   -1.173950   -0.395750
  H      -2.337850    0.544110   -0.687880
  H      -1.051820   -0.596400   -0.159100
  H      -2.624140   -2.262990    1.973910
  H      -0.934250   -1.654180    2.058430
  H      -2.060910   -1.363510    3.406940
--
0 1
  C      -3.492270    6.427390    0.910090
  O      -3.696620    5.038330   -1.343470
  S      -3.204760    6.379770   -0.868140
  C      -1.410820    6.248630   -0.751980
  H      -3.086670    7.353130    1.314970
  H      -4.569770    6.401830    1.050960
  H      -3.018140    5.553060    1.353920
  H      -1.009330    7.155460   -0.302950
  H      -1.178230    5.366760   -0.156620
  H      -1.038450    6.143020   -1.767840
units angstrom
no_reorient
symmetry c1
}

set {
scf_type DF
basis aug-cc-pvdz
freeze_core True
guess SAD
}
energy('sapt2+')
--------------------------------------------------------------------------

  //              Dimer HF             //
    Molecular point group: c1
  Charge       = 0
  Multiplicity = 1
  Basis Set: AUG-CC-PVDZ
    Blend: AUG-CC-PVDZ
  Basis Set: (AUG-CC-PVDZ AUX)
    Blend: AUG-CC-PVDZ-JKFIT
  @DF-RHF Final Energy: -1103.16488516363484
    Total Energy =                      -1103.1648851636348354
  //            Monomer A HF           //
    Molecular point group: c1
  Multiplicity = 1
  Basis Set: AUG-CC-PVDZ
    Blend: AUG-CC-PVDZ
  Basis Set: (AUG-CC-PVDZ AUX)
    Blend: AUG-CC-PVDZ-JKFIT
  @DF-RHF Final Energy:  -551.58137712316488
    Total Energy =                       -551.5813771231648843
  //            Monomer B HF           //
    Molecular point group: c1

    Geometry (in Angstrom), charge = 0, multiplicity = 1:

       Center              X                  Y                   Z               Mass
    ------------   -----------------  -----------------  -----------------  -----------------
      Gh(C)           0.435242597387    -3.335705913512    -0.551553725707    12.000000000000
      Gh(O)           1.132592597387    -1.904545913512     1.571986274293    15.994914619570
      Gh(S)           0.072242597387    -2.889765913512     1.150816274293    31.972071174400
      Gh(C)           0.571362597387    -4.464595913512     1.874406274293    12.000000000000
      Gh(H)          -0.195657402613    -4.170925913512    -0.850343725707     1.007825032230
      Gh(H)           0.205202597387    -2.452865913512    -1.142473725707     1.007825032230
      Gh(H)           1.491232597387    -3.593375913512    -0.613693725707     1.007825032230
      Gh(H)          -0.081087402613    -5.259965913512     1.519316274293     1.007825032230
      Gh(H)           1.608802597387    -4.651155913512     1.603836274293     1.007825032230
      Gh(H)           0.482142597387    -4.360485913512     2.952346274293     1.007825032230
         C           -0.949217402613     3.430414086488     0.455496274293    12.000000000000
         O           -1.153567402613     2.041354086488    -1.798063725707    15.994914619570
         S           -0.661707402613     3.382794086488    -1.322733725707    31.972071174400
         C            1.132232597387     3.251654086488    -1.206573725707    12.000000000000
         H           -0.543617402613     4.356154086488     0.860376274293     1.007825032230
         H           -2.026717402613     3.404854086488     0.596366274293     1.007825032230
         H           -0.475087402613     2.556084086488     0.899326274293     1.007825032230
         H            1.533722597387     4.158484086488    -0.757543725707     1.007825032230
         H            1.364822597387     2.369784086488    -0.611213725707     1.007825032230
         H            1.504602597387     3.146044086488    -2.222433725707     1.007825032230

  Charge       = 0
  Multiplicity = 1
  Basis Set: AUG-CC-PVDZ
    Blend: AUG-CC-PVDZ
  Basis Set: (AUG-CC-PVDZ AUX)
    Blend: AUG-CC-PVDZ-JKFIT

    Orbital Energies [Eh]
    ---------------------

    Doubly Occupied:

       1A    -92.076472     2A    -20.511080     3A    -11.270818
       4A    -11.270797     5A     -9.065780     6A     -6.748129
       7A     -6.747420     8A     -6.745334     9A     -1.335003
      10A     -1.070991    11A     -0.979354    12A     -0.820088
      13A     -0.648551    14A     -0.630102    15A     -0.623341
      16A     -0.588319    17A     -0.561163    18A     -0.545386
      19A     -0.511807    20A     -0.414643    21A     -0.367079

  @DF-RHF Final Energy:  -551.58124789705812

   => Energetics <=

    Nuclear Repulsion Energy =            184.2915366836821818
    One-Electron Energy =               -1124.6822580562366056
    Two-Electron Energy =                 388.8094734754963611
    Total Energy =                       -551.5812478970581196

  Dipole Moment: [D]
     X:     2.4854      Y:     2.8967      Z:     2.8099     Total:     4.7395

    SAPT Results
  --------------------------------------------------------------------------------------------------------
    Electrostatics                 -1.66266224 [mEh]      -1.04333631 [kcal/mol]      -4.36531911 [kJ/mol]
      Elst10,r                     -2.13001922 [mEh]      -1.33660724 [kcal/mol]      -5.59236468 [kJ/mol]
      Elst12,r                      0.46735698 [mEh]       0.29327093 [kcal/mol]       1.22704557 [kJ/mol]

    Exchange                        0.00968856 [mEh]       0.00607966 [kcal/mol]       0.02543730 [kJ/mol]
      Exch10                        0.00555808 [mEh]       0.00348775 [kcal/mol]       0.01459273 [kJ/mol]
      Exch10(S^2)                   0.00555804 [mEh]       0.00348772 [kcal/mol]       0.01459262 [kJ/mol]
      Exch11(S^2)                  -0.00035266 [mEh]      -0.00022130 [kcal/mol]      -0.00092590 [kJ/mol]
      Exch12(S^2)                   0.00448313 [mEh]       0.00281321 [kcal/mol]       0.01177047 [kJ/mol]

    Induction                      -0.11647054 [mEh]      -0.07308637 [kcal/mol]      -0.30579337 [kJ/mol]
      Ind20,r                      -0.13271224 [mEh]      -0.08327819 [kcal/mol]      -0.34843594 [kJ/mol]
      Ind22                         0.01937958 [mEh]       0.01216087 [kcal/mol]       0.05088107 [kJ/mol]
      Exch-Ind20,r                  0.00114942 [mEh]       0.00072127 [kcal/mol]       0.00301781 [kJ/mol]
      Exch-Ind22                   -0.00016785 [mEh]      -0.00010533 [kcal/mol]      -0.00044068 [kJ/mol]
      delta HF,r (2)               -0.00411946 [mEh]      -0.00258500 [kcal/mol]      -0.01081563 [kJ/mol]

    Dispersion                     -0.40554554 [mEh]      -0.25448367 [kcal/mol]      -1.06475966 [kJ/mol]
      Disp20                       -0.38429720 [mEh]      -0.24115013 [kcal/mol]      -1.00897215 [kJ/mol]
      Disp21                        0.08269791 [mEh]       0.05189372 [kcal/mol]       0.21712334 [kJ/mol]
      Disp22 (SDQ)                 -0.02792504 [mEh]      -0.01752323 [kcal/mol]      -0.07331718 [kJ/mol]
      Disp22 (T)                   -0.07586674 [mEh]      -0.04760710 [kcal/mol]      -0.19918809 [kJ/mol]
      Est. Disp22 (T)              -0.07714151 [mEh]      -0.04840703 [kcal/mol]      -0.20253500 [kJ/mol]
      Exch-Disp20                   0.00112030 [mEh]       0.00070300 [kcal/mol]       0.00294134 [kJ/mol]

  Total HF                         -2.26014341 [mEh]      -1.41826140 [kcal/mol]      -5.93400571 [kJ/mol]
  Total SAPT0                      -2.64332031 [mEh]      -1.65870854 [kcal/mol]      -6.94003653 [kJ/mol]
  Total SAPT2                      -2.15262113 [mEh]      -1.35079015 [kcal/mol]      -5.65170600 [kJ/mol]
  Total SAPT2+                     -2.17498977 [mEh]      -1.36482668 [kcal/mol]      -5.71043484 [kJ/mol]

  Special recipe for scaled SAPT0 (see Manual):
    Electrostatics sSAPT0          -2.13001922 [mEh]      -1.33660724 [kcal/mol]      -5.59236468 [kJ/mol]
    Exchange sSAPT0                 0.00555808 [mEh]       0.00348775 [kcal/mol]       0.01459273 [kJ/mol]
    Induction sSAPT0               -0.13568227 [mEh]      -0.08514191 [kcal/mol]      -0.35623376 [kJ/mol]
    Dispersion sSAPT0              -0.38317690 [mEh]      -0.24044714 [kcal/mol]      -1.00603082 [kJ/mol]
  Total sSAPT0                     -2.64332031 [mEh]      -1.65870854 [kcal/mol]      -6.94003653 [kJ/mol]
  --------------------------------------------------------------------------------------------------------

*** Psi4 exiting successfully. Buy a developer a beer!
