                               Psi4 1.4a2.dev224

  ==> Input File <==

--------------------------------------------------------------------------
#Generated by lconvert.py for sapt job

memory 20 GB

molecule  {
0 1
  C      -2.107810   -0.338730   -0.096960
  O      -1.410460    1.092430    2.026580
  S      -2.470810    0.107210    1.605410
  C      -1.971690   -1.467620    2.329000
  H      -2.738710   -1.173950   -0.395750
  H      -2.337850    0.544110   -0.687880
  H      -1.051820   -0.596400   -0.159100
  H      -2.624140   -2.262990    1.973910
  H      -0.934250   -1.654180    2.058430
  H      -2.060910   -1.363510    3.406940
--
0 1
  C      -3.243580    4.763030    1.471320
  O      -3.447930    3.373970   -0.782240
  S      -2.956080    4.715400   -0.306910
  C      -1.162140    4.584270   -0.190740
  H      -2.837990    5.688770    1.876210
  H      -4.321090    4.737460    1.612190
  H      -2.769460    3.888700    1.915150
  H      -0.760650    5.491100    0.258290
  H      -0.929550    3.702400    0.404610
  H      -0.789770    4.478660   -1.206610
units angstrom
no_reorient
symmetry c1
}

set {
scf_type DF
basis aug-cc-pvdz
freeze_core True
guess SAD
}
energy('sapt2+')
--------------------------------------------------------------------------

  //              Dimer HF             //
    Molecular point group: c1
  Charge       = 0
  Multiplicity = 1
  Basis Set: AUG-CC-PVDZ
    Blend: AUG-CC-PVDZ
  Basis Set: (AUG-CC-PVDZ AUX)
    Blend: AUG-CC-PVDZ-JKFIT
  @DF-RHF Final Energy: -1103.17109977927794
    Total Energy =                      -1103.1710997792779381
  //            Monomer A HF           //
    Molecular point group: c1
  Multiplicity = 1
  Basis Set: AUG-CC-PVDZ
    Blend: AUG-CC-PVDZ
  Basis Set: (AUG-CC-PVDZ AUX)
    Blend: AUG-CC-PVDZ-JKFIT
  @DF-RHF Final Energy:  -551.58168308450388
    Total Energy =                       -551.5816830845038794
  //            Monomer B HF           //
    Molecular point group: c1

    Geometry (in Angstrom), charge = 0, multiplicity = 1:

       Center              X                  Y                   Z               Mass
    ------------   -----------------  -----------------  -----------------  -----------------
      Gh(C)           0.310900803162    -2.503523799793    -0.832169623985    12.000000000000
      Gh(O)           1.008250803162    -1.072363799793     1.291370376015    15.994914619570
      Gh(S)          -0.052099196838    -2.057583799793     0.870200376015    31.972071174400
      Gh(C)           0.447020803162    -3.632413799793     1.593790376015    12.000000000000
      Gh(H)          -0.319999196838    -3.338743799793    -1.130959623985     1.007825032230
      Gh(H)           0.080860803162    -1.620683799793    -1.423089623985     1.007825032230
      Gh(H)           1.366890803162    -2.761193799793    -0.894309623985     1.007825032230
      Gh(H)          -0.205429196838    -4.427783799793     1.238700376015     1.007825032230
      Gh(H)           1.484460803162    -3.818973799793     1.323220376015     1.007825032230
      Gh(H)           0.357800803162    -3.528303799793     2.671730376015     1.007825032230
         C           -0.824869196838     2.598236200207     0.736110376015    12.000000000000
         O           -1.029219196838     1.209176200207    -1.517449623985    15.994914619570
         S           -0.537369196838     2.550606200207    -1.042119623985    31.972071174400
         C            1.256570803162     2.419476200207    -0.925949623985    12.000000000000
         H           -0.419279196838     3.523976200207     1.141000376015     1.007825032230
         H           -1.902379196838     2.572666200207     0.876980376015     1.007825032230
         H           -0.350749196838     1.723906200207     1.179940376015     1.007825032230
         H            1.658060803162     3.326306200207    -0.476919623985     1.007825032230
         H            1.489160803162     1.537606200207    -0.330599623985     1.007825032230
         H            1.628940803162     2.313866200207    -1.941819623985     1.007825032230

  Charge       = 0
  Multiplicity = 1
  Basis Set: AUG-CC-PVDZ
    Blend: AUG-CC-PVDZ
  Basis Set: (AUG-CC-PVDZ AUX)
    Blend: AUG-CC-PVDZ-JKFIT

    Orbital Energies [Eh]
    ---------------------

    Doubly Occupied:

       1A    -92.076513     2A    -20.511110     3A    -11.270775
       4A    -11.270755     5A     -9.065793     6A     -6.748150
       7A     -6.747436     8A     -6.745351     9A     -1.335002
      10A     -1.070985    11A     -0.979341    12A     -0.820085
      13A     -0.648548    14A     -0.630108    15A     -0.623334
      16A     -0.588315    17A     -0.561171    18A     -0.545365
      19A     -0.511810    20A     -0.414643    21A     -0.367091

  @DF-RHF Final Energy:  -551.58146108614847

   => Energetics <=

    Nuclear Repulsion Energy =            184.2919665984351809
    One-Electron Energy =               -1124.6834958361212102
    Two-Electron Energy =                 388.8100681515375641
    Total Energy =                       -551.5814610861484653

  Dipole Moment: [D]
     X:     2.4867      Y:     2.8930      Z:     2.8110     Total:     4.7386

    SAPT Results
  --------------------------------------------------------------------------------------------------------
    Electrostatics                 -6.68441659 [mEh]      -4.19453473 [kcal/mol]     -17.54993333 [kJ/mol]
      Elst10,r                     -8.00517571 [mEh]      -5.02332360 [kcal/mol]     -21.01758593 [kJ/mol]
      Elst12,r                      1.32075912 [mEh]       0.82878886 [kcal/mol]       3.46765260 [kJ/mol]

    Exchange                        1.96923253 [mEh]       1.23571207 [kcal/mol]       5.17021929 [kJ/mol]
      Exch10                        1.41456383 [mEh]       0.88765221 [kcal/mol]       3.71393684 [kJ/mol]
      Exch10(S^2)                   1.41360599 [mEh]       0.88705115 [kcal/mol]       3.71142202 [kJ/mol]
      Exch11(S^2)                  -0.02926879 [mEh]      -0.01836645 [kcal/mol]      -0.07684521 [kJ/mol]
      Exch12(S^2)                   0.58393749 [mEh]       0.36642631 [kcal/mol]       1.53312766 [kJ/mol]

    Induction                      -1.41106538 [mEh]      -0.88545690 [kcal/mol]      -3.70475165 [kJ/mol]
      Ind20,r                      -1.54711412 [mEh]      -0.97082877 [kcal/mol]      -4.06194756 [kJ/mol]
      Ind22                        -0.06058504 [mEh]      -0.03801769 [kcal/mol]      -0.15906601 [kJ/mol]
      Exch-Ind20,r                  0.37069456 [mEh]       0.23261435 [kcal/mol]       0.97325845 [kJ/mol]
      Exch-Ind22                    0.01451641 [mEh]       0.00910919 [kcal/mol]       0.03811284 [kJ/mol]
      delta HF,r (2)               -0.18857719 [mEh]      -0.11833398 [kcal/mol]      -0.49510936 [kJ/mol]

    Dispersion                     -3.49662758 [mEh]      -2.19416693 [kcal/mol]      -9.18039444 [kJ/mol]
      Disp20                       -3.29164571 [mEh]      -2.06553887 [kcal/mol]      -8.64221463 [kJ/mol]
      Disp21                        0.51560561 [mEh]       0.32354741 [kcal/mol]       1.35372235 [kJ/mol]
      Disp22 (SDQ)                 -0.25642057 [mEh]      -0.16090634 [kcal/mol]      -0.67323211 [kJ/mol]
      Disp22 (T)                   -0.61236049 [mEh]      -0.38426201 [kcal/mol]      -1.60775225 [kJ/mol]
      Est. Disp22 (T)              -0.64958364 [mEh]      -0.40761989 [kcal/mol]      -1.70548161 [kJ/mol]
      Exch-Disp20                   0.18541673 [mEh]       0.11635076 [kcal/mol]       0.48681156 [kJ/mol]

  Total HF                         -7.95560863 [mEh]      -4.99221978 [kcal/mol]     -20.88744757 [kJ/mol]
  Total SAPT0                     -11.06183761 [mEh]      -6.94140790 [kcal/mol]     -29.04285064 [kJ/mol]
  Total SAPT2                      -9.23247842 [mEh]      -5.79346768 [kcal/mol]     -24.23986876 [kJ/mol]
  Total SAPT2+                     -9.62287702 [mEh]      -6.03844649 [kcal/mol]     -25.26486012 [kJ/mol]

  Special recipe for scaled SAPT0 (see Manual):
    Electrostatics sSAPT0          -8.00517571 [mEh]      -5.02332360 [kcal/mol]     -21.01758593 [kJ/mol]
    Exchange sSAPT0                 1.41456383 [mEh]       0.88765221 [kcal/mol]       3.71393684 [kJ/mol]
    Induction sSAPT0               -1.36424270 [mEh]      -0.85607522 [kcal/mol]      -3.58181873 [kJ/mol]
    Dispersion sSAPT0              -3.10585182 [mEh]      -1.94895144 [kcal/mol]      -8.15441282 [kJ/mol]
  Total sSAPT0                    -11.06070640 [mEh]      -6.94069805 [kcal/mol]     -29.03988064 [kJ/mol]
  --------------------------------------------------------------------------------------------------------

*** Psi4 exiting successfully. Buy a developer a beer!
