                               Psi4 1.4a2.dev224

  ==> Input File <==

--------------------------------------------------------------------------
#Generated by lconvert.py for sapt job

memory 20 GB

molecule  {
-2 1
  P      -0.321200   -0.025860    0.314430
  O       1.132510    0.129150    0.830850
  O      -0.696140    1.645480    0.021780
  O      -1.299460   -0.466420    1.414610
  O      -0.493910   -0.705980   -1.035360
  H       0.114110    2.006680    0.392980
--
0 1
  O       1.168500   -0.563710    4.431450
  H       1.664080   -0.320080    3.616820
  H       0.321450   -0.624090    3.930760
units angstrom
no_reorient
symmetry c1
}

set {
scf_type DF
basis aug-cc-pvdz
freeze_core True
guess SAD
}
energy('sapt2+')
--------------------------------------------------------------------------

  //              Dimer HF             //
    Molecular point group: c1
  Charge       = -2
  Multiplicity = 1
  Basis Set: AUG-CC-PVDZ
    Blend: AUG-CC-PVDZ
  Basis Set: (AUG-CC-PVDZ AUX)
    Blend: AUG-CC-PVDZ-JKFIT
  @DF-RHF Final Energy:  -716.86244737696268
    Total Energy =                       -716.8624473769626775
  //            Monomer A HF           //
    Molecular point group: c1
  Multiplicity = 1
  Basis Set: AUG-CC-PVDZ
    Blend: AUG-CC-PVDZ
  Basis Set: (AUG-CC-PVDZ AUX)
    Blend: AUG-CC-PVDZ-JKFIT
  @DF-RHF Final Energy:  -640.79585042583233
    Total Energy =                       -640.7958504258323273
  //            Monomer B HF           //
    Molecular point group: c1

    Geometry (in Angstrom), charge = 0, multiplicity = 1:

       Center              X                  Y                   Z               Mass
    ------------   -----------------  -----------------  -----------------  -----------------
      Gh(P)          -0.226020814984    -0.033633560842    -0.636035336579    30.973761998420
      Gh(O)           1.227689185016     0.121376439158    -0.119615336579    15.994914619570
      Gh(O)          -0.600960814984     1.637706439158    -0.928685336579    15.994914619570
      Gh(O)          -1.204280814984    -0.474193560842     0.464144663421    15.994914619570
      Gh(O)          -0.398730814984    -0.713753560842    -1.985825336579    15.994914619570
      Gh(H)           0.209289185016     1.998906439158    -0.557485336579     1.007825032230
         O            1.263679185016    -0.571483560842     3.480984663421    15.994914619570
         H            1.759259185016    -0.327853560842     2.666354663421     1.007825032230
         H            0.416629185016    -0.631863560842     2.980294663421     1.007825032230

  Charge       = 0
  Multiplicity = 1
  Basis Set: AUG-CC-PVDZ
    Blend: AUG-CC-PVDZ
  Basis Set: (AUG-CC-PVDZ AUX)
    Blend: AUG-CC-PVDZ-JKFIT

    Orbital Energies [Eh]
    ---------------------

    Doubly Occupied:

       1A    -20.587360     2A     -1.352267     3A     -0.678290
       4A     -0.605929     5A     -0.510919

  @DF-RHF Final Energy:   -76.03381949514412

   => Energetics <=

    Nuclear Repulsion Energy =              8.9706576608935897
    One-Electron Energy =                -122.5394217301929700
    Two-Electron Energy =                  37.5349445741552614
    Total Energy =                        -76.0338194951441153

  Dipole Moment: [D]
     X:    -0.5682      Y:     0.2969      Z:    -2.1301     Total:     2.2244

    SAPT Results
  --------------------------------------------------------------------------------------------------------
    Electrostatics                -27.57981206 [mEh]     -17.30659335 [kcal/mol]     -72.41078658 [kJ/mol]
      Elst10,r                    -29.35441508 [mEh]     -18.42017356 [kcal/mol]     -77.07000616 [kJ/mol]
      Elst12,r                      1.77460302 [mEh]       1.11358021 [kcal/mol]       4.65921958 [kJ/mol]

    Exchange                        2.56965557 [mEh]       1.61248321 [kcal/mol]       6.74662976 [kJ/mol]
      Exch10                        1.67287851 [mEh]       1.04974711 [kcal/mol]       4.39214192 [kJ/mol]
      Exch10(S^2)                   1.67182853 [mEh]       1.04908824 [kcal/mol]       4.38938520 [kJ/mol]
      Exch11(S^2)                   0.05759813 [mEh]       0.03614337 [kcal/mol]       0.15122387 [kJ/mol]
      Exch12(S^2)                   0.83917893 [mEh]       0.52659273 [kcal/mol]       2.20326397 [kJ/mol]

    Induction                      -5.93568297 [mEh]      -3.72469730 [kcal/mol]     -15.58413350 [kJ/mol]
      Ind20,r                      -5.58913651 [mEh]      -3.50723611 [kcal/mol]     -14.67427589 [kJ/mol]
      Ind22                        -0.97207711 [mEh]      -0.60998759 [kcal/mol]      -2.55218809 [kJ/mol]
      Exch-Ind20,r                  0.76076116 [mEh]       0.47738484 [kcal/mol]       1.99737816 [kJ/mol]
      Exch-Ind22                    0.13231355 [mEh]       0.08302801 [kcal/mol]       0.34738919 [kJ/mol]
      delta HF,r (2)               -0.26754407 [mEh]      -0.16788644 [kcal/mol]      -0.70243687 [kJ/mol]

    Dispersion                     -2.20679704 [mEh]      -1.38478605 [kcal/mol]      -5.79394484 [kJ/mol]
      Disp20                       -1.83093139 [mEh]      -1.14892680 [kcal/mol]      -4.80710971 [kJ/mol]
      Disp21                        0.09387254 [mEh]       0.05890591 [kcal/mol]       0.24646233 [kJ/mol]
      Disp22 (SDQ)                 -0.26440505 [mEh]      -0.16591667 [kcal/mol]      -0.69419535 [kJ/mol]
      Disp22 (T)                   -0.37343925 [mEh]      -0.23433667 [kcal/mol]      -0.98046461 [kJ/mol]
      Est. Disp22 (T)              -0.41557359 [mEh]      -0.26077636 [kcal/mol]      -1.09108831 [kJ/mol]
      Exch-Disp20                   0.21024044 [mEh]       0.13192787 [kcal/mol]       0.55198621 [kJ/mol]

  Total HF                        -32.77745599 [mEh]     -20.56816416 [kcal/mol]     -86.05719884 [kJ/mol]
  Total SAPT0                     -34.39814694 [mEh]     -21.58516308 [kcal/mol]     -90.31232234 [kJ/mol]
  Total SAPT2                     -32.56653042 [mEh]     -20.43580636 [kcal/mol]     -85.50341383 [kJ/mol]
  Total SAPT2+                    -33.15263651 [mEh]     -20.80359349 [kcal/mol]     -87.04223516 [kJ/mol]

  Special recipe for scaled SAPT0 (see Manual):
    Electrostatics sSAPT0         -29.35441508 [mEh]     -18.42017356 [kcal/mol]     -77.07000616 [kJ/mol]
    Exchange sSAPT0                 1.67287851 [mEh]       1.04974711 [kcal/mol]       4.39214192 [kJ/mol]
    Induction sSAPT0               -5.09448515 [mEh]      -3.19683769 [kcal/mol]     -13.37556891 [kJ/mol]
    Dispersion sSAPT0              -1.62029458 [mEh]      -1.01675020 [kcal/mol]      -4.25408284 [kJ/mol]
  Total sSAPT0                    -34.39631629 [mEh]     -21.58401434 [kcal/mol]     -90.30751598 [kJ/mol]
  --------------------------------------------------------------------------------------------------------

*** Psi4 exiting successfully. Buy a developer a beer!
