                               Psi4 1.4a2.dev224

  ==> Input File <==

--------------------------------------------------------------------------
#Generated by lconvert.py for sapt job

memory 20 GB

molecule  {
-2 1
  P      -0.321200   -0.025860    0.314430
  O       1.132510    0.129150    0.830850
  O      -0.696140    1.645480    0.021780
  O      -1.299460   -0.466420    1.414610
  O      -0.493910   -0.705980   -1.035360
  H       0.114110    2.006680    0.392980
--
0 1
  O       0.866830   -0.534360    3.963170
  H       1.362420   -0.290740    3.148540
  H       0.019790   -0.594750    3.462490
units angstrom
no_reorient
symmetry c1
}

set {
scf_type DF
basis aug-cc-pvdz
freeze_core True
guess SAD
}
energy('sapt2+')
--------------------------------------------------------------------------

  //              Dimer HF             //
    Molecular point group: c1
  Charge       = -2
  Multiplicity = 1
  Basis Set: AUG-CC-PVDZ
    Blend: AUG-CC-PVDZ
  Basis Set: (AUG-CC-PVDZ AUX)
    Blend: AUG-CC-PVDZ-JKFIT
  @DF-RHF Final Energy:  -716.87287526033049
    Total Energy =                       -716.8728752603304883
  //            Monomer A HF           //
    Molecular point group: c1
  Multiplicity = 1
  Basis Set: AUG-CC-PVDZ
    Blend: AUG-CC-PVDZ
  Basis Set: (AUG-CC-PVDZ AUX)
    Blend: AUG-CC-PVDZ-JKFIT
  @DF-RHF Final Energy:  -640.79610595227632
    Total Energy =                       -640.7961059522763207
  //            Monomer B HF           //
    Molecular point group: c1

    Geometry (in Angstrom), charge = 0, multiplicity = 1:

       Center              X                  Y                   Z               Mass
    ------------   -----------------  -----------------  -----------------  -----------------
      Gh(P)          -0.178349141764    -0.038271461356    -0.562034782076    30.973761998420
      Gh(O)           1.275360858236     0.116738538644    -0.045614782076    15.994914619570
      Gh(O)          -0.553289141764     1.633068538644    -0.854684782076    15.994914619570
      Gh(O)          -1.156609141764    -0.478831461356     0.538145217924    15.994914619570
      Gh(O)          -0.351059141764    -0.718391461356    -1.911824782076    15.994914619570
      Gh(H)           0.256960858236     1.994268538644    -0.483484782076     1.007825032230
         O            1.009680858236    -0.546771461356     3.086705217924    15.994914619570
         H            1.505270858236    -0.303151461356     2.272075217924     1.007825032230
         H            0.162640858236    -0.607161461356     2.586025217924     1.007825032230

  Charge       = 0
  Multiplicity = 1
  Basis Set: AUG-CC-PVDZ
    Blend: AUG-CC-PVDZ
  Basis Set: (AUG-CC-PVDZ AUX)
    Blend: AUG-CC-PVDZ-JKFIT

    Orbital Energies [Eh]
    ---------------------

    Doubly Occupied:

       1A    -20.587372     2A     -1.352233     3A     -0.678243
       4A     -0.605897     5A     -0.510867

  @DF-RHF Final Energy:   -76.03388899269763

   => Energetics <=

    Nuclear Repulsion Energy =              8.9707027674918134
    One-Electron Energy =                -122.5399566795061332
    Two-Electron Energy =                  37.5353649193166916
    Total Energy =                        -76.0338889926976265

  Dipole Moment: [D]
     X:    -0.5679      Y:     0.2966      Z:    -2.1291     Total:     2.2234

    SAPT Results
  --------------------------------------------------------------------------------------------------------
    Electrostatics                -39.82624081 [mEh]     -24.99134341 [kcal/mol]    -104.56378083 [kJ/mol]
      Elst10,r                    -41.53355222 [mEh]     -26.06269750 [kcal/mol]    -109.04632633 [kJ/mol]
      Elst12,r                      1.70731141 [mEh]       1.07135409 [kcal/mol]       4.48254549 [kJ/mol]

    Exchange                       11.22303877 [mEh]       7.04256316 [kcal/mol]      29.46608424 [kJ/mol]
      Exch10                        8.09268305 [mEh]       5.07823528 [kcal/mol]      21.24733641 [kJ/mol]
      Exch10(S^2)                   8.07420071 [mEh]       5.06663744 [kcal/mol]      21.19881104 [kJ/mol]
      Exch11(S^2)                   0.22492691 [mEh]       0.14114377 [kcal/mol]       0.59054553 [kJ/mol]
      Exch12(S^2)                   2.90542882 [mEh]       1.82318411 [kcal/mol]       7.62820230 [kJ/mol]

    Induction                     -11.01272347 [mEh]      -6.91058831 [kcal/mol]     -28.91390150 [kJ/mol]
      Ind20,r                     -10.96196663 [mEh]      -6.87873791 [kcal/mol]     -28.78063941 [kJ/mol]
      Ind22                        -2.14295582 [mEh]      -1.34472508 [kcal/mol]      -5.62632972 [kJ/mol]
      Exch-Ind20,r                  2.91410441 [mEh]       1.82862813 [kcal/mol]       7.65098008 [kJ/mol]
      Exch-Ind22                    0.56967853 [mEh]       0.35747867 [kcal/mol]       1.49569077 [kJ/mol]
      delta HF,r (2)               -1.39158397 [mEh]      -0.87323212 [kcal/mol]      -3.65360321 [kJ/mol]

    Dispersion                     -5.23942939 [mEh]      -3.28779158 [kcal/mol]     -13.75611997 [kJ/mol]
      Disp20                       -4.74898927 [mEh]      -2.98003576 [kcal/mol]     -12.46846960 [kJ/mol]
      Disp21                        0.26962965 [mEh]       0.16919516 [kcal/mol]       0.70791255 [kJ/mol]
      Disp22 (SDQ)                 -0.58913467 [mEh]      -0.36968759 [kcal/mol]      -1.54677286 [kJ/mol]
      Disp22 (T)                   -0.90769685 [mEh]      -0.56958837 [kcal/mol]      -2.38315774 [kJ/mol]
      Est. Disp22 (T)              -1.01786359 [mEh]      -0.63871905 [kcal/mol]      -2.67240050 [kJ/mol]
      Exch-Disp20                   0.84692849 [mEh]       0.53145565 [kcal/mol]       2.22361043 [kJ/mol]

  Total HF                        -42.88031536 [mEh]     -26.90780412 [kcal/mol]    -112.58225246 [kJ/mol]
  Total SAPT0                     -46.78237614 [mEh]     -29.35638423 [kcal/mol]    -122.82711163 [kJ/mol]
  Total SAPT2                     -43.51798629 [mEh]     -27.30794867 [kcal/mol]    -114.25645726 [kJ/mol]
  Total SAPT2+                    -44.85535490 [mEh]     -28.14716015 [kcal/mol]    -117.76771806 [kJ/mol]

  Special recipe for scaled SAPT0 (see Manual):
    Electrostatics sSAPT0         -41.53355222 [mEh]     -26.06269750 [kcal/mol]    -109.04632633 [kJ/mol]
    Exchange sSAPT0                 8.09268305 [mEh]       5.07823528 [kcal/mol]      21.24733641 [kJ/mol]
    Induction sSAPT0               -9.41938865 [mEh]      -5.91075562 [kcal/mol]     -24.73060150 [kJ/mol]
    Dispersion sSAPT0              -3.89623145 [mEh]      -2.44492214 [kcal/mol]     -10.22955425 [kJ/mol]
  Total sSAPT0                    -46.75648927 [mEh]     -29.34013998 [kcal/mol]    -122.75914567 [kJ/mol]
  --------------------------------------------------------------------------------------------------------

*** Psi4 exiting successfully. Buy a developer a beer!
