                               Psi4 1.4a2.dev224

  ==> Input File <==

--------------------------------------------------------------------------
#Generated by lconvert.py for sapt job

memory 20 GB

molecule  {
-2 1
  P      -0.321200   -0.025860    0.314430
  O       1.132510    0.129150    0.830850
  O      -0.696140    1.645480    0.021780
  O      -1.299460   -0.466420    1.414610
  O      -0.493910   -0.705980   -1.035360
  H       0.114110    2.006680    0.392980
--
0 1
  O       1.470160   -0.593050    4.899720
  H       1.965750   -0.349420    4.085090
  H       0.623120   -0.653440    4.399040
units angstrom
no_reorient
symmetry c1
}

set {
scf_type DF
basis aug-cc-pvdz
freeze_core True
guess SAD
}
energy('sapt2+')
--------------------------------------------------------------------------

  //              Dimer HF             //
    Molecular point group: c1
  Charge       = -2
  Multiplicity = 1
  Basis Set: AUG-CC-PVDZ
    Blend: AUG-CC-PVDZ
  Basis Set: (AUG-CC-PVDZ AUX)
    Blend: AUG-CC-PVDZ-JKFIT
  @DF-RHF Final Energy:  -716.85464392852464
    Total Energy =                       -716.8546439285246379
  //            Monomer A HF           //
    Molecular point group: c1
  Multiplicity = 1
  Basis Set: AUG-CC-PVDZ
    Blend: AUG-CC-PVDZ
  Basis Set: (AUG-CC-PVDZ AUX)
    Blend: AUG-CC-PVDZ-JKFIT
  @DF-RHF Final Energy:  -640.79572026107303
    Total Energy =                       -640.7957202610730292
  //            Monomer B HF           //
    Molecular point group: c1

    Geometry (in Angstrom), charge = 0, multiplicity = 1:

       Center              X                  Y                   Z               Mass
    ------------   -----------------  -----------------  -----------------  -----------------
      Gh(P)          -0.273691261648    -0.028996975311    -0.710034487672    30.973761998420
      Gh(O)           1.180018738352     0.126013024689    -0.193614487672    15.994914619570
      Gh(O)          -0.648631261648     1.642343024689    -1.002684487672    15.994914619570
      Gh(O)          -1.251951261648    -0.469556975311     0.390145512328    15.994914619570
      Gh(O)          -0.446401261648    -0.709116975311    -2.059824487672    15.994914619570
      Gh(H)           0.161618738352     2.003543024689    -0.631484487672     1.007825032230
         O            1.517668738352    -0.596186975311     3.875255512328    15.994914619570
         H            2.013258738352    -0.352556975311     3.060625512328     1.007825032230
         H            0.670628738352    -0.656576975311     3.374575512328     1.007825032230

  Charge       = 0
  Multiplicity = 1
  Basis Set: AUG-CC-PVDZ
    Blend: AUG-CC-PVDZ
  Basis Set: (AUG-CC-PVDZ AUX)
    Blend: AUG-CC-PVDZ-JKFIT

    Orbital Energies [Eh]
    ---------------------

    Doubly Occupied:

       1A    -20.587343     2A     -1.352276     3A     -0.678309
       4A     -0.605937     5A     -0.510934

  @DF-RHF Final Energy:   -76.03379275377350

   => Energetics <=

    Nuclear Repulsion Energy =              8.9706913764954344
    One-Electron Energy =                -122.5393694915286744
    Two-Electron Energy =                  37.5348853612597466
    Total Energy =                        -76.0337927537734970

  Dipole Moment: [D]
     X:    -0.5683      Y:     0.2969      Z:    -2.1305     Total:     2.2248

    SAPT Results
  --------------------------------------------------------------------------------------------------------
    Electrostatics                -20.89639583 [mEh]     -13.11268635 [kcal/mol]     -54.86347969 [kJ/mol]
      Elst10,r                    -22.44550579 [mEh]     -14.08476753 [kcal/mol]     -58.93066733 [kJ/mol]
      Elst12,r                      1.54910996 [mEh]       0.97208118 [kcal/mol]       4.06718764 [kJ/mol]

    Exchange                        0.62300206 [mEh]       0.39093970 [kcal/mol]       1.63569169 [kJ/mol]
      Exch10                        0.36535201 [mEh]       0.22926184 [kcal/mol]       0.95923156 [kJ/mol]
      Exch10(S^2)                   0.36528295 [mEh]       0.22921851 [kcal/mol]       0.95905025 [kJ/mol]
      Exch11(S^2)                   0.01455809 [mEh]       0.00913534 [kcal/mol]       0.03822226 [kJ/mol]
      Exch12(S^2)                   0.24309197 [mEh]       0.15254251 [kcal/mol]       0.63823788 [kJ/mol]

    Induction                      -3.51833982 [mEh]      -2.20779157 [kcal/mol]      -9.23739994 [kJ/mol]
      Ind20,r                      -3.21843955 [mEh]      -2.01960131 [kcal/mol]      -8.45001189 [kJ/mol]
      Ind22                        -0.50004464 [mEh]      -0.31378275 [kcal/mol]      -1.31286701 [kJ/mol]
      Exch-Ind20,r                  0.20895273 [mEh]       0.13111982 [kcal/mol]       0.54860531 [kJ/mol]
      Exch-Ind22                    0.03246470 [mEh]       0.02037191 [kcal/mol]       0.08523607 [kJ/mol]
      delta HF,r (2)               -0.04127307 [mEh]      -0.02589924 [kcal/mol]      -0.10836242 [kJ/mol]

    Dispersion                     -0.96932902 [mEh]      -0.60826314 [kcal/mol]      -2.54497298 [kJ/mol]
      Disp20                       -0.76886147 [mEh]      -0.48246786 [kcal/mol]      -2.01864551 [kJ/mol]
      Disp21                        0.04552408 [mEh]       0.02856679 [kcal/mol]       0.11952345 [kJ/mol]
      Disp22 (SDQ)                 -0.12045299 [mEh]      -0.07558539 [kcal/mol]      -0.31624927 [kJ/mol]
      Disp22 (T)                   -0.16475355 [mEh]      -0.10338441 [kcal/mol]      -0.43256039 [kJ/mol]
      Est. Disp22 (T)              -0.17930898 [mEh]      -0.11251809 [kcal/mol]      -0.47077567 [kJ/mol]
      Exch-Disp20                   0.05377034 [mEh]       0.03374140 [kcal/mol]       0.14117401 [kJ/mol]

  Total HF                        -25.13091368 [mEh]     -15.76988642 [kcal/mol]     -65.98120477 [kJ/mol]
  Total SAPT0                     -25.84600481 [mEh]     -16.21861288 [kcal/mol]     -67.85867627 [kJ/mol]
  Total SAPT2                     -24.50682472 [mEh]     -15.37826468 [kcal/mol]     -64.34265943 [kJ/mol]
  Total SAPT2+                    -24.76106261 [mEh]     -15.53780137 [kcal/mol]     -65.01016091 [kJ/mol]

  Special recipe for scaled SAPT0 (see Manual):
    Electrostatics sSAPT0         -22.44550579 [mEh]     -14.08476753 [kcal/mol]     -58.93066733 [kJ/mol]
    Exchange sSAPT0                 0.36535201 [mEh]       0.22926184 [kcal/mol]       0.95923156 [kJ/mol]
    Induction sSAPT0               -3.05064136 [mEh]      -1.91430636 [kcal/mol]      -8.00945780 [kJ/mol]
    Dispersion sSAPT0              -0.71506063 [mEh]      -0.44870732 [kcal/mol]      -1.87739141 [kJ/mol]
  Total sSAPT0                    -25.84585577 [mEh]     -16.21851936 [kcal/mol]     -67.85828498 [kJ/mol]
  --------------------------------------------------------------------------------------------------------

*** Psi4 exiting successfully. Buy a developer a beer!
