                               Psi4 1.4a2.dev224

  ==> Input File <==

--------------------------------------------------------------------------
#Generated by lconvert.py for sapt job

memory 20 GB

molecule  {
-1 1
  P      -0.324380    0.173620    0.466200
  O       1.132440    0.276700    0.848300
  O      -0.774750    1.666930   -0.078510
  O      -1.386930   -0.326050    1.384520
  O      -0.384290   -0.717120   -0.923950
  H       0.055480    2.144970   -0.158170
  H       0.535130   -0.783740   -1.196640
--
0 1
  O       0.570900   -1.404900    5.330690
  H       1.078220   -1.056570    4.582770
  H      -0.299880   -1.397480    4.907660
units angstrom
no_reorient
symmetry c1
}

set {
scf_type DF
basis aug-cc-pvdz
freeze_core True
guess SAD
}
energy('sapt2+')
--------------------------------------------------------------------------

  //              Dimer HF             //
    Molecular point group: c1
  Charge       = -1
  Multiplicity = 1
  Basis Set: AUG-CC-PVDZ
    Blend: AUG-CC-PVDZ
  Basis Set: (AUG-CC-PVDZ AUX)
    Blend: AUG-CC-PVDZ-JKFIT
  @DF-RHF Final Energy:  -717.59621968986175
    Total Energy =                       -717.5962196898617549
  //            Monomer A HF           //
    Molecular point group: c1
  Multiplicity = 1
  Basis Set: AUG-CC-PVDZ
    Blend: AUG-CC-PVDZ
  Basis Set: (AUG-CC-PVDZ AUX)
    Blend: AUG-CC-PVDZ-JKFIT
  @DF-RHF Final Energy:  -641.54588191743642
    Total Energy =                       -641.5458819174364180
  //            Monomer B HF           //
    Molecular point group: c1

    Geometry (in Angstrom), charge = 0, multiplicity = 1:

       Center              X                  Y                   Z               Mass
    ------------   -----------------  -----------------  -----------------  -----------------
      Gh(P)          -0.131777182104     0.206601332014    -0.643411138070    30.973761998420
      Gh(O)           1.325042817896     0.309681332014    -0.261311138070    15.994914619570
      Gh(O)          -0.582147182104     1.699911332014    -1.188121138070    15.994914619570
      Gh(O)          -1.194327182104    -0.293068667986     0.274908861930    15.994914619570
      Gh(O)          -0.191687182104    -0.684138667986    -2.033561138070    15.994914619570
      Gh(H)           0.248082817896     2.177951332014    -1.267781138070     1.007825032230
      Gh(H)           0.727732817896    -0.750758667986    -2.306251138070     1.007825032230
         O            0.763502817896    -1.371918667986     4.221078861930    15.994914619570
         H            1.270822817896    -1.023588667986     3.473158861930     1.007825032230
         H           -0.107277182104    -1.364498667986     3.798048861930     1.007825032230

  Charge       = 0
  Multiplicity = 1
  Basis Set: AUG-CC-PVDZ
    Blend: AUG-CC-PVDZ
  Basis Set: (AUG-CC-PVDZ AUX)
    Blend: AUG-CC-PVDZ-JKFIT

    Orbital Energies [Eh]
    ---------------------

    Doubly Occupied:

       1A    -20.582157     2A     -1.356137     3A     -0.699192
       4A     -0.597384     5A     -0.510526

  @DF-RHF Final Energy:   -76.03903542863534

   => Energetics <=

    Nuclear Repulsion Energy =              9.1070341885111326
    One-Electron Energy =                -122.8013468252335940
    Two-Electron Energy =                  37.6552772080870994
    Total Energy =                        -76.0390354286353585

  Dipole Moment: [D]
     X:    -0.6040      Y:     0.5910      Z:    -1.9453     Total:     2.1209

    SAPT Results
  --------------------------------------------------------------------------------------------------------
    Electrostatics                 -9.70398546 [mEh]      -6.08934281 [kcal/mol]     -25.47781031 [kJ/mol]
      Elst10,r                    -10.58149770 [mEh]      -6.63999005 [kcal/mol]     -27.78171838 [kJ/mol]
      Elst12,r                      0.87751224 [mEh]       0.55064724 [kcal/mol]       2.30390806 [kJ/mol]

    Exchange                        0.08245554 [mEh]       0.05174163 [kcal/mol]       0.21648699 [kJ/mol]
      Exch10                        0.05041318 [mEh]       0.03163475 [kcal/mol]       0.13235977 [kJ/mol]
      Exch10(S^2)                   0.05041109 [mEh]       0.03163344 [kcal/mol]       0.13235429 [kJ/mol]
      Exch11(S^2)                   0.00130473 [mEh]       0.00081873 [kcal/mol]       0.00342556 [kJ/mol]
      Exch12(S^2)                   0.03073763 [mEh]       0.01928816 [kcal/mol]       0.08070165 [kJ/mol]

    Induction                      -0.85143918 [mEh]      -0.53428615 [kcal/mol]      -2.23545325 [kJ/mol]
      Ind20,r                      -0.77511763 [mEh]      -0.48639365 [kcal/mol]      -2.03507104 [kJ/mol]
      Ind22                        -0.08175218 [mEh]      -0.05130027 [kcal/mol]      -0.21464033 [kJ/mol]
      Exch-Ind20,r                  0.01490725 [mEh]       0.00935444 [kcal/mol]       0.03913899 [kJ/mol]
      Exch-Ind22                    0.00157228 [mEh]       0.00098662 [kcal/mol]       0.00412802 [kJ/mol]
      delta HF,r (2)               -0.01104890 [mEh]      -0.00693329 [kcal/mol]      -0.02900888 [kJ/mol]

    Dispersion                     -0.41884104 [mEh]      -0.26282672 [kcal/mol]      -1.09966701 [kJ/mol]
      Disp20                       -0.34728999 [mEh]      -0.21792776 [kcal/mol]      -0.91180975 [kJ/mol]
      Disp21                        0.03051429 [mEh]       0.01914801 [kcal/mol]       0.08011527 [kJ/mol]
      Disp22 (SDQ)                 -0.03493344 [mEh]      -0.02192106 [kcal/mol]      -0.09171773 [kJ/mol]
      Disp22 (T)                   -0.07076890 [mEh]      -0.04440816 [kcal/mol]      -0.18580373 [kJ/mol]
      Est. Disp22 (T)              -0.07423262 [mEh]      -0.04658167 [kcal/mol]      -0.19489772 [kJ/mol]
      Exch-Disp20                   0.00710071 [mEh]       0.00445577 [kcal/mol]       0.01864292 [kJ/mol]

  Total HF                        -11.30234379 [mEh]      -7.09232780 [kcal/mol]     -29.67429953 [kJ/mol]
  Total SAPT0                     -11.64253307 [mEh]      -7.30579980 [kcal/mol]     -30.56746636 [kJ/mol]
  Total SAPT2                     -10.81315837 [mEh]      -6.78535932 [kcal/mol]     -28.38994340 [kJ/mol]
  Total SAPT2+                    -10.89181014 [mEh]      -6.83471405 [kcal/mol]     -28.59644358 [kJ/mol]

  Special recipe for scaled SAPT0 (see Manual):
    Electrostatics sSAPT0         -10.58149770 [mEh]      -6.63999005 [kcal/mol]     -27.78171838 [kJ/mol]
    Exchange sSAPT0                 0.05041318 [mEh]       0.03163475 [kcal/mol]       0.13235977 [kJ/mol]
    Induction sSAPT0               -0.77125742 [mEh]      -0.48397134 [kcal/mol]      -2.02493607 [kJ/mol]
    Dispersion sSAPT0              -0.34018840 [mEh]      -0.21347144 [kcal/mol]      -0.89316451 [kJ/mol]
  Total sSAPT0                    -11.64253033 [mEh]      -7.30579808 [kcal/mol]     -30.56745918 [kJ/mol]
  --------------------------------------------------------------------------------------------------------

*** Psi4 exiting successfully. Buy a developer a beer!
