                               Psi4 1.4a2.dev224

  ==> Input File <==

--------------------------------------------------------------------------
#Generated by lconvert.py for sapt job

memory 20 GB

molecule  {
-1 1
  P      -0.324380    0.173620    0.466200
  O       1.132440    0.276700    0.848300
  O      -0.774750    1.666930   -0.078510
  O      -1.386930   -0.326050    1.384520
  O      -0.384290   -0.717120   -0.923950
  H       0.055480    2.144970   -0.158170
  H       0.535130   -0.783740   -1.196640
--
0 1
  O       0.588030   -0.983870    4.151390
  H       1.095340   -0.635540    3.403470
  H      -0.282750   -0.976450    3.728360
units angstrom
no_reorient
symmetry c1
}

set {
scf_type DF
basis aug-cc-pvdz
freeze_core True
guess SAD
}
energy('sapt2+')
--------------------------------------------------------------------------

  //              Dimer HF             //
    Molecular point group: c1
  Charge       = -1
  Multiplicity = 1
  Basis Set: AUG-CC-PVDZ
    Blend: AUG-CC-PVDZ
  Basis Set: (AUG-CC-PVDZ AUX)
    Blend: AUG-CC-PVDZ-JKFIT
  @DF-RHF Final Energy:  -717.60552765218165
    Total Energy =                       -717.6055276521816495
  //            Monomer A HF           //
    Molecular point group: c1
  Multiplicity = 1
  Basis Set: AUG-CC-PVDZ
    Blend: AUG-CC-PVDZ
  Basis Set: (AUG-CC-PVDZ AUX)
    Blend: AUG-CC-PVDZ-JKFIT
  @DF-RHF Final Energy:  -641.54625037009987
    Total Energy =                       -641.5462503700998695
  //            Monomer B HF           //
    Molecular point group: c1

    Geometry (in Angstrom), charge = 0, multiplicity = 1:

       Center              X                  Y                   Z               Mass
    ------------   -----------------  -----------------  -----------------  -----------------
      Gh(P)          -0.134460360687     0.140650626621    -0.458684000171    30.973761998420
      Gh(O)           1.322359639313     0.243730626621    -0.076584000171    15.994914619570
      Gh(O)          -0.584830360687     1.633960626621    -1.003394000171    15.994914619570
      Gh(O)          -1.197010360687    -0.359019373379     0.459635999829    15.994914619570
      Gh(O)          -0.194370360687    -0.750089373379    -1.848834000171    15.994914619570
      Gh(H)           0.245399639313     2.112000626621    -1.083054000171     1.007825032230
      Gh(H)           0.725049639313    -0.816709373379    -2.121524000171     1.007825032230
         O            0.777949639313    -1.016839373379     3.226505999829    15.994914619570
         H            1.285259639313    -0.668509373379     2.478585999829     1.007825032230
         H           -0.092830360687    -1.009419373379     2.803475999829     1.007825032230

  Charge       = 0
  Multiplicity = 1
  Basis Set: AUG-CC-PVDZ
    Blend: AUG-CC-PVDZ
  Basis Set: (AUG-CC-PVDZ AUX)
    Blend: AUG-CC-PVDZ-JKFIT

    Orbital Energies [Eh]
    ---------------------

    Doubly Occupied:

       1A    -20.582183     2A     -1.356104     3A     -0.699136
       4A     -0.597355     5A     -0.510469

  @DF-RHF Final Energy:   -76.03912903851926

   => Energetics <=

    Nuclear Repulsion Energy =              9.1070601871572592
    One-Electron Energy =                -122.8018826656725935
    Two-Electron Energy =                  37.6556934399960852
    Total Energy =                        -76.0391290385192491

  Dipole Moment: [D]
     X:    -0.6035      Y:     0.5905      Z:    -1.9438     Total:     2.1193

    SAPT Results
  --------------------------------------------------------------------------------------------------------
    Electrostatics                -18.84712972 [mEh]     -11.82675246 [kcal/mol]     -49.48313227 [kJ/mol]
      Elst10,r                    -20.06656243 [mEh]     -12.59195803 [kcal/mol]     -52.68475239 [kJ/mol]
      Elst12,r                      1.21943270 [mEh]       0.76520557 [kcal/mol]       3.20162012 [kJ/mol]

    Exchange                        3.67030202 [mEh]       2.30314929 [kcal/mol]       9.63637662 [kJ/mol]
      Exch10                        2.66265645 [mEh]       1.67084215 [kcal/mol]       6.99080356 [kJ/mol]
      Exch10(S^2)                   2.65983382 [mEh]       1.66907092 [kcal/mol]       6.98339272 [kJ/mol]
      Exch11(S^2)                   0.05128521 [mEh]       0.03218195 [kcal/mol]       0.13464929 [kJ/mol]
      Exch12(S^2)                   0.95636036 [mEh]       0.60012519 [kcal/mol]       2.51092377 [kJ/mol]

    Induction                      -3.16035624 [mEh]      -1.98315348 [kcal/mol]      -8.29751417 [kJ/mol]
      Ind20,r                      -3.06523992 [mEh]      -1.92346709 [kcal/mol]      -8.04778630 [kJ/mol]
      Ind22                        -0.53121494 [mEh]      -0.33334241 [kcal/mol]      -1.39470464 [kJ/mol]
      Exch-Ind20,r                  0.66471072 [mEh]       0.41711227 [kcal/mol]       1.74519776 [kJ/mol]
      Exch-Ind22                    0.11519629 [mEh]       0.07228676 [kcal/mol]       0.30244782 [kJ/mol]
      delta HF,r (2)               -0.34380839 [mEh]      -0.21574302 [kcal/mol]      -0.90266881 [kJ/mol]

    Dispersion                     -2.76738553 [mEh]      -1.73656064 [kcal/mol]      -7.26576972 [kJ/mol]
      Disp20                       -2.44172688 [mEh]      -1.53220675 [kcal/mol]      -6.41075303 [kJ/mol]
      Disp21                        0.15040439 [mEh]       0.09438018 [kcal/mol]       0.39488666 [kJ/mol]
      Disp22 (SDQ)                 -0.23815855 [mEh]      -0.14944674 [kcal/mol]      -0.62528518 [kJ/mol]
      Disp22 (T)                   -0.45269579 [mEh]      -0.28407090 [kcal/mol]      -1.18855263 [kJ/mol]
      Est. Disp22 (T)              -0.50212007 [mEh]      -0.31508510 [kcal/mol]      -1.31831607 [kJ/mol]
      Exch-Disp20                   0.26421557 [mEh]       0.16579778 [kcal/mol]       0.69369789 [kJ/mol]

  Total HF                        -20.14824356 [mEh]     -12.64321372 [kcal/mol]     -52.89920619 [kJ/mol]
  Total SAPT0                     -22.32575486 [mEh]     -14.00962269 [kcal/mol]     -58.61626132 [kJ/mol]
  Total SAPT2                     -20.51469525 [mEh]     -12.87316562 [kcal/mol]     -53.86132496 [kJ/mol]
  Total SAPT2+                    -21.10456948 [mEh]     -13.24331729 [kcal/mol]     -55.41003954 [kJ/mol]

  Special recipe for scaled SAPT0 (see Manual):
    Electrostatics sSAPT0         -20.06656243 [mEh]     -12.59195803 [kcal/mol]     -52.68475239 [kJ/mol]
    Exchange sSAPT0                 2.66265645 [mEh]       1.67084215 [kcal/mol]       6.99080356 [kJ/mol]
    Induction sSAPT0               -2.74221915 [mEh]      -1.72076850 [kcal/mol]      -7.19969540 [kJ/mol]
    Dispersion sSAPT0              -2.17666925 [mEh]      -1.36588057 [kcal/mol]      -5.71484432 [kJ/mol]
  Total sSAPT0                    -22.32279437 [mEh]     -14.00776495 [kcal/mol]     -58.60848855 [kJ/mol]
  --------------------------------------------------------------------------------------------------------

*** Psi4 exiting successfully. Buy a developer a beer!
