                               Psi4 1.4a2.dev224

  ==> Input File <==

--------------------------------------------------------------------------
#Generated by lconvert.py for sapt job

memory 20 GB

molecule  {
-1 1
  P      -0.324380    0.173620    0.466200
  O       1.132440    0.276700    0.848300
  O      -0.774750    1.666930   -0.078510
  O      -1.386930   -0.326050    1.384520
  O      -0.384290   -0.717120   -0.923950
  H       0.055480    2.144970   -0.158170
  H       0.535130   -0.783740   -1.196640
--
0 1
  O       0.579470   -1.194380    4.741040
  H       1.086780   -0.846050    3.993120
  H      -0.291320   -1.186970    4.318010
units angstrom
no_reorient
symmetry c1
}

set {
scf_type DF
basis aug-cc-pvdz
freeze_core True
guess SAD
}
energy('sapt2+')
--------------------------------------------------------------------------

  //              Dimer HF             //
    Molecular point group: c1
  Charge       = -1
  Multiplicity = 1
  Basis Set: AUG-CC-PVDZ
    Blend: AUG-CC-PVDZ
  Basis Set: (AUG-CC-PVDZ AUX)
    Blend: AUG-CC-PVDZ-JKFIT
  @DF-RHF Final Energy:  -717.60002678271280
    Total Energy =                       -717.6000267827128027
  //            Monomer A HF           //
    Molecular point group: c1
  Multiplicity = 1
  Basis Set: AUG-CC-PVDZ
    Blend: AUG-CC-PVDZ
  Basis Set: (AUG-CC-PVDZ AUX)
    Blend: AUG-CC-PVDZ-JKFIT
  @DF-RHF Final Energy:  -641.54598026165354
    Total Energy =                       -641.5459802616535399
  //            Monomer B HF           //
    Molecular point group: c1

    Geometry (in Angstrom), charge = 0, multiplicity = 1:

       Center              X                  Y                   Z               Mass
    ------------   -----------------  -----------------  -----------------  -----------------
      Gh(P)          -0.133119423123     0.173625283764    -0.551047569120    30.973761998420
      Gh(O)           1.323700576877     0.276705283764    -0.168947569120    15.994914619570
      Gh(O)          -0.583489423123     1.666935283764    -1.095757569120    15.994914619570
      Gh(O)          -1.195669423123    -0.326044716236     0.367272430880    15.994914619570
      Gh(O)          -0.193029423123    -0.717114716236    -1.941197569120    15.994914619570
      Gh(H)           0.246740576877     2.144975283764    -1.175417569120     1.007825032230
      Gh(H)           0.726390576877    -0.783734716236    -2.213887569120     1.007825032230
         O            0.770730576877    -1.194374716236     3.723792430880    15.994914619570
         H            1.278040576877    -0.846044716236     2.975872430880     1.007825032230
         H           -0.100059423123    -1.186964716236     3.300762430880     1.007825032230

  Charge       = 0
  Multiplicity = 1
  Basis Set: AUG-CC-PVDZ
    Blend: AUG-CC-PVDZ
  Basis Set: (AUG-CC-PVDZ AUX)
    Blend: AUG-CC-PVDZ-JKFIT

    Orbital Energies [Eh]
    ---------------------

    Doubly Occupied:

       1A    -20.582173     2A     -1.356135     3A     -0.699181
       4A     -0.597379     5A     -0.510516

  @DF-RHF Final Energy:   -76.03906240621464

   => Energetics <=

    Nuclear Repulsion Energy =              9.1070169623457176
    One-Electron Energy =                -122.8013881091660267
    Two-Electron Energy =                  37.6553087406056690
    Total Energy =                        -76.0390624062146401

  Dipole Moment: [D]
     X:    -0.6038      Y:     0.5909      Z:    -1.9450     Total:     2.1206

    SAPT Results
  --------------------------------------------------------------------------------------------------------
    Electrostatics                -12.89372330 [mEh]      -8.09093352 [kcal/mol]     -33.85246587 [kJ/mol]
      Elst10,r                    -13.99017966 [mEh]      -8.77897028 [kcal/mol]     -36.73121164 [kJ/mol]
      Elst12,r                      1.09645636 [mEh]       0.68803675 [kcal/mol]       2.87874577 [kJ/mol]

    Exchange                        0.55109808 [mEh]       0.34581926 [kcal/mol]       1.44690780 [kJ/mol]
      Exch10                        0.36655437 [mEh]       0.23001634 [kcal/mol]       0.96238837 [kJ/mol]
      Exch10(S^2)                   0.36647674 [mEh]       0.22996763 [kcal/mol]       0.96218456 [kJ/mol]
      Exch11(S^2)                   0.00848959 [mEh]       0.00532730 [kcal/mol]       0.02228941 [kJ/mol]
      Exch12(S^2)                   0.17605411 [mEh]       0.11047562 [kcal/mol]       0.46223001 [kJ/mol]

    Induction                      -1.52471236 [mEh]      -0.95677145 [kcal/mol]      -4.00313176 [kJ/mol]
      Ind20,r                      -1.39922587 [mEh]      -0.87802749 [kcal/mol]      -3.67366701 [kJ/mol]
      Ind22                        -0.17619456 [mEh]      -0.11056375 [kcal/mol]      -0.46259874 [kJ/mol]
      Exch-Ind20,r                  0.09507209 [mEh]       0.05965864 [kcal/mol]       0.24961173 [kJ/mol]
      Exch-Ind22                    0.01197175 [mEh]       0.00751239 [kcal/mol]       0.03143183 [kJ/mol]
      delta HF,r (2)               -0.05633578 [mEh]      -0.03535123 [kcal/mol]      -0.14790956 [kJ/mol]

    Dispersion                     -1.02823415 [mEh]      -0.64522667 [kcal/mol]      -2.69962839 [kJ/mol]
      Disp20                       -0.86179076 [mEh]      -0.54078187 [kcal/mol]      -2.26263134 [kJ/mol]
      Disp21                        0.06150177 [mEh]       0.03859295 [kcal/mol]       0.16147288 [kJ/mol]
      Disp22 (SDQ)                 -0.08864122 [mEh]      -0.05562320 [kcal/mol]      -0.23272749 [kJ/mol]
      Disp22 (T)                   -0.17097105 [mEh]      -0.10728595 [kcal/mol]      -0.44888443 [kJ/mol]
      Est. Disp22 (T)              -0.18296825 [mEh]      -0.11481431 [kcal/mol]      -0.48038307 [kJ/mol]
      Exch-Disp20                   0.04366431 [mEh]       0.02739977 [kcal/mol]       0.11464062 [kJ/mol]

  Total HF                        -14.98411484 [mEh]      -9.40267402 [kcal/mol]     -39.34078810 [kJ/mol]
  Total SAPT0                     -15.80224130 [mEh]      -9.91605612 [kcal/mol]     -41.48877882 [kJ/mol]
  Total SAPT2                     -14.68546405 [mEh]      -9.21526782 [kcal/mol]     -38.55668054 [kJ/mol]
  Total SAPT2+                    -14.89557174 [mEh]      -9.34711238 [kcal/mol]     -39.10831822 [kJ/mol]

  Special recipe for scaled SAPT0 (see Manual):
    Electrostatics sSAPT0         -13.99017966 [mEh]      -8.77897028 [kcal/mol]     -36.73121164 [kJ/mol]
    Exchange sSAPT0                 0.36655437 [mEh]       0.23001634 [kcal/mol]       0.96238837 [kJ/mol]
    Induction sSAPT0               -1.36042913 [mEh]      -0.85368217 [kcal/mol]      -3.57180619 [kJ/mol]
    Dispersion sSAPT0              -0.81809870 [mEh]      -0.51336469 [kcal/mol]      -2.14791785 [kJ/mol]
  Total sSAPT0                    -15.80215312 [mEh]      -9.91600079 [kcal/mol]     -41.48854730 [kJ/mol]
  --------------------------------------------------------------------------------------------------------

*** Psi4 exiting successfully. Buy a developer a beer!
