                               Psi4 1.4a2.dev224

  ==> Input File <==

--------------------------------------------------------------------------
#Generated by lconvert.py for sapt job

memory 20 GB

molecule  {
0 1
  P      -0.330460    0.164630    0.264150
  O       1.207780    0.080240    0.653430
  O      -0.409690    1.498140   -0.614190
  O      -1.256720    0.048350    1.408030
  O      -0.596940   -0.936710   -0.851180
  H      -0.273360    2.285120   -0.076060
  H       0.051390   -0.902000   -1.562750
  H       1.287550   -0.331860    1.545250
--
0 1
  O       0.544070   -1.226700    3.535900
  H       0.703950   -0.911510    4.426890
  H      -0.359370   -0.941230    3.318500
units angstrom
no_reorient
symmetry c1
}

set {
scf_type DF
basis aug-cc-pvdz
freeze_core True
guess SAD
}
energy('sapt2+')
--------------------------------------------------------------------------

  //              Dimer HF             //
    Molecular point group: c1
  Charge       = 0
  Multiplicity = 1
  Basis Set: AUG-CC-PVDZ
    Blend: AUG-CC-PVDZ
  Basis Set: (AUG-CC-PVDZ AUX)
    Blend: AUG-CC-PVDZ-JKFIT
  @DF-RHF Final Energy:  -718.14145006293290
    Total Energy =                       -718.1414500629329041
  //            Monomer A HF           //
    Molecular point group: c1
  Multiplicity = 1
  Basis Set: AUG-CC-PVDZ
    Blend: AUG-CC-PVDZ
  Basis Set: (AUG-CC-PVDZ AUX)
    Blend: AUG-CC-PVDZ-JKFIT
  @DF-RHF Final Energy:  -642.08653269311912
    Total Energy =                       -642.0865326931191248
  //            Monomer B HF           //
    Molecular point group: c1

    Geometry (in Angstrom), charge = 0, multiplicity = 1:

       Center              X                  Y                   Z               Mass
    ------------   -----------------  -----------------  -----------------  -----------------
      Gh(P)          -0.183928697110     0.201639965884    -0.442687205722    30.973761998420
      Gh(O)           1.354311302890     0.117249965884    -0.053407205722    15.994914619570
      Gh(O)          -0.263158697110     1.535149965884    -1.321027205722    15.994914619570
      Gh(O)          -1.110188697110     0.085359965884     0.701192794278    15.994914619570
      Gh(O)          -0.450408697110    -0.899700034116    -1.558017205722    15.994914619570
      Gh(H)          -0.126828697110     2.322129965884    -0.782897205722     1.007825032230
      Gh(H)           0.197921302890    -0.864990034116    -2.269587205722     1.007825032230
      Gh(H)           1.434081302890    -0.294850034116     0.838412794278     1.007825032230
         O            0.690601302890    -1.189690034116     2.829062794278    15.994914619570
         H            0.850481302890    -0.874500034116     3.720052794278     1.007825032230
         H           -0.212838697110    -0.904220034116     2.611662794278     1.007825032230

  Charge       = 0
  Multiplicity = 1
  Basis Set: AUG-CC-PVDZ
    Blend: AUG-CC-PVDZ
  Basis Set: (AUG-CC-PVDZ AUX)
    Blend: AUG-CC-PVDZ-JKFIT

    Orbital Energies [Eh]
    ---------------------

    Doubly Occupied:

       1A    -20.578202     2A     -1.351816     3A     -0.716588
       4A     -0.582094     5A     -0.508394

  @DF-RHF Final Energy:   -76.04101911274120

   => Energetics <=

    Nuclear Repulsion Energy =              9.1160211520317311
    One-Electron Energy =                -122.8398909355502866
    Two-Electron Energy =                  37.6828506707773485
    Total Energy =                        -76.0410191127411963

  Dipole Moment: [D]
     X:    -1.2595      Y:     1.0237      Z:     1.1458     Total:     1.9867

    SAPT Results
  --------------------------------------------------------------------------------------------------------
    Electrostatics                -16.60416851 [mEh]     -10.41927304 [kcal/mol]     -43.59423841 [kJ/mol]
      Elst10,r                    -17.60480299 [mEh]     -11.04718066 [kcal/mol]     -46.22140388 [kJ/mol]
      Elst12,r                      1.00063448 [mEh]       0.62790762 [kcal/mol]       2.62716547 [kJ/mol]

    Exchange                        8.92584832 [mEh]       5.60105438 [kcal/mol]      23.43481154 [kJ/mol]
      Exch10                        7.08195037 [mEh]       4.44399095 [kcal/mol]      18.59365813 [kJ/mol]
      Exch10(S^2)                   7.06409179 [mEh]       4.43278452 [kcal/mol]      18.54677044 [kJ/mol]
      Exch11(S^2)                   0.00131138 [mEh]       0.00082290 [kcal/mol]       0.00344303 [kJ/mol]
      Exch12(S^2)                   1.84258657 [mEh]       1.15624053 [kcal/mol]       4.83771038 [kJ/mol]

    Induction                      -3.78192241 [mEh]      -2.37319214 [kcal/mol]      -9.92943593 [kJ/mol]
      Ind20,r                      -4.25011124 [mEh]      -2.66698507 [kcal/mol]     -11.15866552 [kJ/mol]
      Ind22                        -0.70536697 [mEh]      -0.44262446 [kcal/mol]      -1.85194074 [kJ/mol]
      Exch-Ind20,r                  1.80068189 [mEh]       1.12994495 [kcal/mol]       4.72768966 [kJ/mol]
      Exch-Ind22                    0.29884901 [mEh]       0.18753059 [kcal/mol]       0.78462797 [kJ/mol]
      delta HF,r (2)               -0.92597511 [mEh]      -0.58105815 [kcal/mol]      -2.43114731 [kJ/mol]

    Dispersion                     -4.22988053 [mEh]      -2.65429011 [kcal/mol]     -11.10554981 [kJ/mol]
      Disp20                       -4.01435666 [mEh]      -2.51904683 [kcal/mol]     -10.53969195 [kJ/mol]
      Disp21                        0.24383565 [mEh]       0.15300918 [kcal/mol]       0.64019041 [kJ/mol]
      Disp22 (SDQ)                 -0.25249826 [mEh]      -0.15844505 [kcal/mol]      -0.66293409 [kJ/mol]
      Disp22 (T)                   -0.65415468 [mEh]      -0.41048826 [kcal/mol]      -1.71748287 [kJ/mol]
      Est. Disp22 (T)              -0.72757609 [mEh]      -0.45656089 [kcal/mol]      -1.91025077 [kJ/mol]
      Exch-Disp20                   0.52071482 [mEh]       0.32675348 [kcal/mol]       1.36713658 [kJ/mol]

  Total HF                        -13.89825707 [mEh]      -8.72128798 [kcal/mol]     -36.48986892 [kJ/mol]
  Total SAPT0                     -17.39189891 [mEh]     -10.91358133 [kcal/mol]     -45.66242429 [kJ/mol]
  Total SAPT2                     -14.95388443 [mEh]      -9.38370415 [kcal/mol]     -39.26141817 [kJ/mol]
  Total SAPT2+                    -15.69012313 [mEh]      -9.84570091 [kcal/mol]     -41.19441261 [kJ/mol]

  Special recipe for scaled SAPT0 (see Manual):
    Electrostatics sSAPT0         -17.60480299 [mEh]     -11.04718066 [kcal/mol]     -46.22140388 [kJ/mol]
    Exchange sSAPT0                 7.08195037 [mEh]       4.44399095 [kcal/mol]      18.59365813 [kJ/mol]
    Induction sSAPT0               -3.36171310 [mEh]      -2.10950682 [kcal/mol]      -8.82617653 [kJ/mol]
    Dispersion sSAPT0              -3.48968262 [mEh]      -2.18980890 [kcal/mol]      -9.16216045 [kJ/mol]
  Total sSAPT0                    -17.37424834 [mEh]     -10.90250543 [kcal/mol]     -45.61608274 [kJ/mol]
  --------------------------------------------------------------------------------------------------------

*** Psi4 exiting successfully. Buy a developer a beer!
