                               Psi4 1.4a2.dev224

  ==> Input File <==

--------------------------------------------------------------------------
#Generated by lconvert.py for sapt job

memory 20 GB

molecule  {
0 1
  P      -0.330460    0.164630    0.264150
  O       1.207780    0.080240    0.653430
  O      -0.409690    1.498140   -0.614190
  O      -1.256720    0.048350    1.408030
  O      -0.596940   -0.936710   -0.851180
  H      -0.273360    2.285120   -0.076060
  H       0.051390   -0.902000   -1.562750
  H       1.287550   -0.331860    1.545250
--
0 1
  O       0.200930   -1.639700    4.454660
  H       0.360810   -1.324510    5.345650
  H      -0.702510   -1.354240    4.237270
units angstrom
no_reorient
symmetry c1
}

set {
scf_type DF
basis aug-cc-pvdz
freeze_core True
guess SAD
}
energy('sapt2+')
--------------------------------------------------------------------------

  //              Dimer HF             //
    Molecular point group: c1
  Charge       = 0
  Multiplicity = 1
  Basis Set: AUG-CC-PVDZ
    Blend: AUG-CC-PVDZ
  Basis Set: (AUG-CC-PVDZ AUX)
    Blend: AUG-CC-PVDZ-JKFIT
  @DF-RHF Final Energy:  -718.13219761767016
    Total Energy =                       -718.1321976176701583
  //            Monomer A HF           //
    Molecular point group: c1
  Multiplicity = 1
  Basis Set: AUG-CC-PVDZ
    Blend: AUG-CC-PVDZ
  Basis Set: (AUG-CC-PVDZ AUX)
    Blend: AUG-CC-PVDZ-JKFIT
  @DF-RHF Final Energy:  -642.08613224692715
    Total Energy =                       -642.0861322469271499
  //            Monomer B HF           //
    Molecular point group: c1

    Geometry (in Angstrom), charge = 0, multiplicity = 1:

       Center              X                  Y                   Z               Mass
    ------------   -----------------  -----------------  -----------------  -----------------
      Gh(P)          -0.130645823668     0.265770806203    -0.585352597745    30.973761998420
      Gh(O)           1.407594176332     0.181380806203    -0.196072597745    15.994914619570
      Gh(O)          -0.209875823668     1.599280806203    -1.463692597745    15.994914619570
      Gh(O)          -1.056905823668     0.149490806203     0.558527402255    15.994914619570
      Gh(O)          -0.397125823668    -0.835569193797    -1.700682597745    15.994914619570
      Gh(H)          -0.073545823668     2.386260806203    -0.925562597745     1.007825032230
      Gh(H)           0.251204176332    -0.800859193797    -2.412252597745     1.007825032230
      Gh(H)           1.487364176332    -0.230719193797     0.695747402255     1.007825032230
         O            0.400744176332    -1.538559193797     3.605157402255    15.994914619570
         H            0.560624176332    -1.223369193797     4.496147402255     1.007825032230
         H           -0.502695823668    -1.253099193797     3.387767402255     1.007825032230

  Charge       = 0
  Multiplicity = 1
  Basis Set: AUG-CC-PVDZ
    Blend: AUG-CC-PVDZ
  Basis Set: (AUG-CC-PVDZ AUX)
    Blend: AUG-CC-PVDZ-JKFIT

    Orbital Energies [Eh]
    ---------------------

    Doubly Occupied:

       1A    -20.578182     2A     -1.351899     3A     -0.716707
       4A     -0.582231     5A     -0.508487

  @DF-RHF Final Energy:   -76.04082145069322

   => Energetics <=

    Nuclear Repulsion Energy =              9.1160459014972783
    One-Electron Energy =                -122.8387227685835796
    Two-Electron Energy =                  37.6818554163930912
    Total Energy =                        -76.0408214506932154

  Dipole Moment: [D]
     X:    -1.2616      Y:     1.0245      Z:     1.1513     Total:     1.9917

    SAPT Results
  --------------------------------------------------------------------------------------------------------
    Electrostatics                 -4.65420344 [mEh]      -2.92055675 [kcal/mol]     -12.21960945 [kJ/mol]
      Elst10,r                     -5.19748764 [mEh]      -3.26147274 [kcal/mol]     -13.64600193 [kJ/mol]
      Elst12,r                      0.54328420 [mEh]       0.34091598 [kcal/mol]       1.42639248 [kJ/mol]

    Exchange                        0.40523628 [mEh]       0.25428960 [kcal/mol]       1.06394771 [kJ/mol]
      Exch10                        0.28631340 [mEh]       0.17966437 [kcal/mol]       0.75171573 [kJ/mol]
      Exch10(S^2)                   0.28625988 [mEh]       0.17963079 [kcal/mol]       0.75157520 [kJ/mol]
      Exch11(S^2)                  -0.00583654 [mEh]      -0.00366248 [kcal/mol]      -0.01532383 [kJ/mol]
      Exch12(S^2)                   0.12475942 [mEh]       0.07828772 [kcal/mol]       0.32755580 [kJ/mol]

    Induction                      -0.35804728 [mEh]      -0.22467806 [kcal/mol]      -0.94005300 [kJ/mol]
      Ind20,r                      -0.35749773 [mEh]      -0.22433321 [kcal/mol]      -0.93861017 [kJ/mol]
      Ind22                        -0.02986462 [mEh]      -0.01874033 [kcal/mol]      -0.07840956 [kJ/mol]
      Exch-Ind20,r                  0.05462374 [mEh]       0.03427691 [kcal/mol]       0.14341460 [kJ/mol]
      Exch-Ind22                    0.00456315 [mEh]       0.00286342 [kcal/mol]       0.01198056 [kJ/mol]
      delta HF,r (2)               -0.02987181 [mEh]      -0.01874485 [kcal/mol]      -0.07842843 [kJ/mol]

    Dispersion                     -0.83314225 [mEh]      -0.52280465 [kcal/mol]      -2.18741466 [kJ/mol]
      Disp20                       -0.72947500 [mEh]      -0.45775247 [kcal/mol]      -1.91523634 [kJ/mol]
      Disp21                        0.05711790 [mEh]       0.03584202 [kcal/mol]       0.14996302 [kJ/mol]
      Disp22 (SDQ)                 -0.04910894 [mEh]      -0.03081633 [kcal/mol]      -0.12893551 [kJ/mol]
      Disp22 (T)                   -0.13112075 [mEh]      -0.08227951 [kcal/mol]      -0.34425749 [kJ/mol]
      Est. Disp22 (T)              -0.13954106 [mEh]      -0.08756334 [kcal/mol]      -0.36636500 [kJ/mol]
      Exch-Disp20                   0.02786485 [mEh]       0.01748546 [kcal/mol]       0.07315915 [kJ/mol]

  Total HF                         -5.24392005 [mEh]      -3.29060951 [kcal/mol]     -13.76791019 [kJ/mol]
  Total SAPT0                      -5.94553020 [mEh]      -3.73087652 [kcal/mol]     -15.60998738 [kJ/mol]
  Total SAPT2                      -5.30862458 [mEh]      -3.33121222 [kcal/mol]     -13.93779192 [kJ/mol]
  Total SAPT2+                     -5.44015668 [mEh]      -3.41374986 [kcal/mol]     -14.28312940 [kJ/mol]

  Special recipe for scaled SAPT0 (see Manual):
    Electrostatics sSAPT0          -5.19748764 [mEh]      -3.26147274 [kcal/mol]     -13.64600193 [kJ/mol]
    Exchange sSAPT0                 0.28631340 [mEh]       0.17966437 [kcal/mol]       0.75171573 [kJ/mol]
    Induction sSAPT0               -0.33271516 [mEh]      -0.20878192 [kcal/mol]      -0.87354354 [kJ/mol]
    Dispersion sSAPT0              -0.70159451 [mEh]      -0.44025720 [kcal/mol]      -1.84203614 [kJ/mol]
  Total sSAPT0                     -5.94548392 [mEh]      -3.73084748 [kcal/mol]     -15.60986587 [kJ/mol]
  --------------------------------------------------------------------------------------------------------

*** Psi4 exiting successfully. Buy a developer a beer!
