                               Psi4 1.4a2.dev224

  ==> Input File <==

--------------------------------------------------------------------------
#Generated by lconvert.py for sapt job

memory 20 GB

molecule  {
0 1
  P      -0.330460    0.164630    0.264150
  O       1.207780    0.080240    0.653430
  O      -0.409690    1.498140   -0.614190
  O      -1.256720    0.048350    1.408030
  O      -0.596940   -0.936710   -0.851180
  H      -0.273360    2.285120   -0.076060
  H       0.051390   -0.902000   -1.562750
  H       1.287550   -0.331860    1.545250
--
0 1
  O       0.372500   -1.433200    3.995280
  H       0.532380   -1.118010    4.886270
  H      -0.530940   -1.147730    3.777880
units angstrom
no_reorient
symmetry c1
}

set {
scf_type DF
basis aug-cc-pvdz
freeze_core True
guess SAD
}
energy('sapt2+')
--------------------------------------------------------------------------

  //              Dimer HF             //
    Molecular point group: c1
  Charge       = 0
  Multiplicity = 1
  Basis Set: AUG-CC-PVDZ
    Blend: AUG-CC-PVDZ
  Basis Set: (AUG-CC-PVDZ AUX)
    Blend: AUG-CC-PVDZ-JKFIT
  @DF-RHF Final Energy:  -718.13589077207223
    Total Energy =                       -718.1358907720722300
  //            Monomer A HF           //
    Molecular point group: c1
  Multiplicity = 1
  Basis Set: AUG-CC-PVDZ
    Blend: AUG-CC-PVDZ
  Basis Set: (AUG-CC-PVDZ AUX)
    Blend: AUG-CC-PVDZ-JKFIT
  @DF-RHF Final Energy:  -642.08626815621938
    Total Energy =                       -642.0862681562193757
  //            Monomer B HF           //
    Molecular point group: c1

    Geometry (in Angstrom), charge = 0, multiplicity = 1:

       Center              X                  Y                   Z               Mass
    ------------   -----------------  -----------------  -----------------  -----------------
      Gh(P)          -0.157287260389     0.233705342598    -0.514019858288    30.973761998420
      Gh(O)           1.380952739611     0.149315342598    -0.124739858288    15.994914619570
      Gh(O)          -0.236517260389     1.567215342598    -1.392359858288    15.994914619570
      Gh(O)          -1.083547260389     0.117425342598     0.629860141712    15.994914619570
      Gh(O)          -0.423767260389    -0.867634657402    -1.629349858288    15.994914619570
      Gh(H)          -0.100187260389     2.354195342598    -0.854229858288     1.007825032230
      Gh(H)           0.224562739611    -0.832924657402    -2.340919858288     1.007825032230
      Gh(H)           1.460722739611    -0.262784657402     0.767080141712     1.007825032230
         O            0.545672739611    -1.364124657402     3.217110141712    15.994914619570
         H            0.705552739611    -1.048934657402     4.108100141712     1.007825032230
         H           -0.357767260389    -1.078654657402     2.999710141712     1.007825032230

  Charge       = 0
  Multiplicity = 1
  Basis Set: AUG-CC-PVDZ
    Blend: AUG-CC-PVDZ
  Basis Set: (AUG-CC-PVDZ AUX)
    Blend: AUG-CC-PVDZ-JKFIT

    Orbital Energies [Eh]
    ---------------------

    Doubly Occupied:

       1A    -20.578175     2A     -1.351882     3A     -0.716682
       4A     -0.582196     5A     -0.508455

  @DF-RHF Final Energy:   -76.04088494453254

   => Energetics <=

    Nuclear Repulsion Energy =              9.1160211520317347
    One-Electron Energy =                -122.8390311383962938
    Two-Electron Energy =                  37.6821250418320233
    Total Energy =                        -76.0408849445325359

  Dipole Moment: [D]
     X:    -1.2613      Y:     1.0241      Z:     1.1502     Total:     1.9906

    SAPT Results
  --------------------------------------------------------------------------------------------------------
    Electrostatics                 -8.42263855 [mEh]      -5.28528548 [kcal/mol]     -22.11363446 [kJ/mol]
      Elst10,r                     -9.21499252 [mEh]      -5.78249511 [kcal/mol]     -24.19395953 [kJ/mol]
      Elst12,r                      0.79235397 [mEh]       0.49720962 [kcal/mol]       2.08032506 [kJ/mol]

    Exchange                        1.93826634 [mEh]       1.21628049 [kcal/mol]       5.08891756 [kJ/mol]
      Exch10                        1.45096464 [mEh]       0.91049405 [kcal/mol]       3.80950713 [kJ/mol]
      Exch10(S^2)                   1.44992831 [mEh]       0.90984375 [kcal/mol]       3.80678626 [kJ/mol]
      Exch11(S^2)                  -0.01151481 [mEh]      -0.00722565 [kcal/mol]      -0.03023214 [kJ/mol]
      Exch12(S^2)                   0.49881651 [mEh]       0.31301209 [kcal/mol]       1.30964258 [kJ/mol]

    Induction                      -1.08494822 [mEh]      -0.68081529 [kcal/mol]      -2.84853116 [kJ/mol]
      Ind20,r                      -1.13486468 [mEh]      -0.71213834 [kcal/mol]      -2.97958681 [kJ/mol]
      Ind22                        -0.15583754 [mEh]      -0.09778953 [kcal/mol]      -0.40915141 [kJ/mol]
      Exch-Ind20,r                  0.32430347 [mEh]       0.20350350 [kcal/mol]       0.85145864 [kJ/mol]
      Exch-Ind22                    0.04453276 [mEh]       0.02794473 [kcal/mol]       0.11692074 [kJ/mol]
      delta HF,r (2)               -0.16308222 [mEh]      -0.10233564 [kcal/mol]      -0.42817232 [kJ/mol]

    Dispersion                     -1.84275670 [mEh]      -1.15634728 [kcal/mol]      -4.83815704 [kJ/mol]
      Disp20                       -1.65367176 [mEh]      -1.03769469 [kcal/mol]      -4.34171460 [kJ/mol]
      Disp21                        0.10857288 [mEh]       0.06813051 [kcal/mol]       0.28505807 [kJ/mol]
      Disp22 (SDQ)                 -0.11113267 [mEh]      -0.06973680 [kcal/mol]      -0.29177877 [kJ/mol]
      Disp22 (T)                   -0.28545532 [mEh]      -0.17912592 [kcal/mol]      -0.74946284 [kJ/mol]
      Est. Disp22 (T)              -0.31105540 [mEh]      -0.19519021 [kcal/mol]      -0.81667584 [kJ/mol]
      Exch-Disp20                   0.12453024 [mEh]       0.07814391 [kcal/mol]       0.32695411 [kJ/mol]

  Total HF                         -8.73767132 [mEh]      -5.48297153 [kcal/mol]     -22.94075289 [kJ/mol]
  Total SAPT0                     -10.26681284 [mEh]      -6.44252232 [kcal/mol]     -26.95551339 [kJ/mol]
  Total SAPT2                      -9.09846195 [mEh]      -5.70937107 [kcal/mol]     -23.88800855 [kJ/mol]
  Total SAPT2+                     -9.41207713 [mEh]      -5.90616757 [kcal/mol]     -24.71140510 [kJ/mol]

  Special recipe for scaled SAPT0 (see Manual):
    Electrostatics sSAPT0          -9.21499252 [mEh]      -5.78249511 [kcal/mol]     -24.19395953 [kJ/mol]
    Exchange sSAPT0                 1.45096464 [mEh]       0.91049405 [kcal/mol]       3.80950713 [kJ/mol]
    Induction sSAPT0               -0.97294756 [mEh]      -0.61053381 [kcal/mol]      -2.55447347 [kJ/mol]
    Dispersion sSAPT0              -1.52887430 [mEh]      -0.95938311 [kcal/mol]      -4.01405893 [kJ/mol]
  Total sSAPT0                    -10.26584975 [mEh]      -6.44191797 [kcal/mol]     -26.95298480 [kJ/mol]
  --------------------------------------------------------------------------------------------------------

*** Psi4 exiting successfully. Buy a developer a beer!
