                               Psi4 1.4a2.dev224

  ==> Input File <==

--------------------------------------------------------------------------
#Generated by lconvert.py for sapt job

memory 20 GB

molecule  {
0 1
  P      -0.034540   -0.218720    1.198360
  O       0.993980   -0.661090    0.063490
  O       0.696450    1.080590    1.710840
  O      -0.383500   -1.249650    2.200630
  O      -1.353240    0.254370    0.433090
  H       0.467830    1.271440    2.645310
  H      -1.166890    0.933210   -0.225370
  H       0.849670   -1.579150   -0.192290
--
0 1
  P       0.205980    0.311850    6.857130
  O       1.349410    0.660480    7.915200
  O       0.295740    1.512230    5.746070
  O      -1.147660    0.220460    7.431110
  O       0.879050   -0.874560    6.096420
  H      -0.445880    2.110730    5.896870
  H       0.494820   -1.060090    5.198770
  H       0.940350    0.826810    8.771440
units angstrom
no_reorient
symmetry c1
}

set {
scf_type DF
basis aug-cc-pvdz
freeze_core True
guess SAD
}
energy('sapt2+')
--------------------------------------------------------------------------

  //              Dimer HF             //
    Molecular point group: c1
  Charge       = 0
  Multiplicity = 1
  Basis Set: AUG-CC-PVDZ
    Blend: AUG-CC-PVDZ
  Basis Set: (AUG-CC-PVDZ AUX)
    Blend: AUG-CC-PVDZ-JKFIT
  @DF-RHF Final Energy: -1284.17721135944680
    Total Energy =                      -1284.1772113594468010
  //            Monomer A HF           //
    Molecular point group: c1
  Multiplicity = 1
  Basis Set: AUG-CC-PVDZ
    Blend: AUG-CC-PVDZ
  Basis Set: (AUG-CC-PVDZ AUX)
    Blend: AUG-CC-PVDZ-JKFIT
  @DF-RHF Final Energy:  -642.08575139744687
    Total Energy =                       -642.0857513974468702
  //            Monomer B HF           //
    Molecular point group: c1

    Geometry (in Angstrom), charge = 0, multiplicity = 1:

       Center              X                  Y                   Z               Mass
    ------------   -----------------  -----------------  -----------------  -----------------
      Gh(P)          -0.176082945525    -0.323273258961    -2.767704476039    30.973761998420
      Gh(O)           0.852437054475    -0.765643258961    -3.902574476039    15.994914619570
      Gh(O)           0.554907054475     0.976036741039    -2.255224476039    15.994914619570
      Gh(O)          -0.525042945525    -1.354203258961    -1.765434476039    15.994914619570
      Gh(O)          -1.494782945525     0.149816741039    -3.532974476039    15.994914619570
      Gh(H)           0.326287054475     1.166886741039    -1.320754476039     1.007825032230
      Gh(H)          -1.308432945525     0.828656741039    -4.191434476039     1.007825032230
      Gh(H)           0.708127054475    -1.683703258961    -4.158354476039     1.007825032230
         P            0.064437054475     0.207296741039     2.891065523961    30.973761998420
         O            1.207867054475     0.555926741039     3.949135523961    15.994914619570
         O            0.154197054475     1.407676741039     1.780005523961    15.994914619570
         O           -1.289202945525     0.115906741039     3.465045523961    15.994914619570
         O            0.737507054475    -0.979113258961     2.130355523961    15.994914619570
         H           -0.587422945525     2.006176741039     1.930805523961     1.007825032230
         H            0.353277054475    -1.164643258961     1.232705523961     1.007825032230
         H            0.798807054475     0.722256741039     4.805375523961     1.007825032230

  Charge       = 0
  Multiplicity = 1
  Basis Set: AUG-CC-PVDZ
    Blend: AUG-CC-PVDZ
  Basis Set: (AUG-CC-PVDZ AUX)
    Blend: AUG-CC-PVDZ-JKFIT

    Orbital Energies [Eh]
    ---------------------

    Doubly Occupied:

       1A    -80.152609     2A    -20.636033     3A    -20.622071
       4A    -20.614339     5A    -20.536409     6A     -7.669027
       7A     -5.567655     8A     -5.567184     9A     -5.566770
      10A     -1.477766    11A     -1.406370    12A     -1.391161
      13A     -1.315427    14A     -0.884028    15A     -0.769151
      16A     -0.740673    17A     -0.695143    18A     -0.653822
      19A     -0.636959    20A     -0.598289    21A     -0.590243
      22A     -0.552678    23A     -0.537155    24A     -0.480712
      25A     -0.476340

  @DF-RHF Final Energy:  -642.08511706644470

   => Energetics <=

    Nuclear Repulsion Energy =            279.7258421315293617
    One-Electron Energy =               -1443.3458927207379929
    Two-Electron Energy =                 521.5349335227639358
    Total Energy =                       -642.0851170664446954

  Dipole Moment: [D]
     X:     0.3832      Y:     0.6245      Z:    -1.0391     Total:     1.2714

    SAPT Results
  --------------------------------------------------------------------------------------------------------
    Electrostatics                 -5.40080239 [mEh]      -3.38905467 [kcal/mol]     -14.17980472 [kJ/mol]
      Elst10,r                     -6.00309423 [mEh]      -3.76699850 [kcal/mol]     -15.76112173 [kJ/mol]
      Elst12,r                      0.60229184 [mEh]       0.37794384 [kcal/mol]       1.58131701 [kJ/mol]

    Exchange                        0.36791319 [mEh]       0.23086901 [kcal/mol]       0.96595594 [kJ/mol]
      Exch10                        0.25803134 [mEh]       0.16191711 [kcal/mol]       0.67746118 [kJ/mol]
      Exch10(S^2)                   0.25799398 [mEh]       0.16189367 [kcal/mol]       0.67736311 [kJ/mol]
      Exch11(S^2)                  -0.00347662 [mEh]      -0.00218161 [kcal/mol]      -0.00912785 [kJ/mol]
      Exch12(S^2)                   0.11335847 [mEh]       0.07113351 [kcal/mol]       0.29762261 [kJ/mol]

    Induction                      -0.64312261 [mEh]      -0.40356553 [kcal/mol]      -1.68851818 [kJ/mol]
      Ind20,r                      -0.59163138 [mEh]      -0.37125429 [kcal/mol]      -1.55332796 [kJ/mol]
      Ind22                        -0.04987399 [mEh]      -0.03129640 [kcal/mol]      -0.13094415 [kJ/mol]
      Exch-Ind20,r                  0.05437836 [mEh]       0.03412294 [kcal/mol]       0.14277037 [kJ/mol]
      Exch-Ind22                    0.00458405 [mEh]       0.00287653 [kcal/mol]       0.01203541 [kJ/mol]
      delta HF,r (2)               -0.06057965 [mEh]      -0.03801430 [kcal/mol]      -0.15905184 [kJ/mol]

    Dispersion                     -1.30363017 [mEh]      -0.81804028 [kcal/mol]      -3.42268054 [kJ/mol]
      Disp20                       -1.12421127 [mEh]      -0.70545322 [kcal/mol]      -2.95161627 [kJ/mol]
      Disp21                        0.11218114 [mEh]       0.07039473 [kcal/mol]       0.29453155 [kJ/mol]
      Disp22 (SDQ)                 -0.07975994 [mEh]      -0.05005012 [kcal/mol]      -0.20940969 [kJ/mol]
      Disp22 (T)                   -0.22513515 [mEh]      -0.14127444 [kcal/mol]      -0.59109225 [kJ/mol]
      Est. Disp22 (T)              -0.23461539 [mEh]      -0.14722338 [kcal/mol]      -0.61598262 [kJ/mol]
      Exch-Disp20                   0.02277528 [mEh]       0.01429170 [kcal/mol]       0.05979649 [kJ/mol]

  Total HF                         -6.34289556 [mEh]      -3.98022705 [kcal/mol]     -16.65326999 [kJ/mol]
  Total SAPT0                      -7.44433154 [mEh]      -4.67138857 [kcal/mol]     -19.54508977 [kJ/mol]
  Total SAPT2                      -6.77744780 [mEh]      -4.25291270 [kcal/mol]     -17.79418674 [kJ/mol]
  Total SAPT2+                     -6.97964198 [mEh]      -4.37979147 [kcal/mol]     -18.32504749 [kJ/mol]

  Special recipe for scaled SAPT0 (see Manual):
    Electrostatics sSAPT0          -6.00309423 [mEh]      -3.76699850 [kcal/mol]     -15.76112173 [kJ/mol]
    Exchange sSAPT0                 0.25803134 [mEh]       0.16191711 [kcal/mol]       0.67746118 [kJ/mol]
    Induction sSAPT0               -0.59780904 [mEh]      -0.37513084 [kcal/mol]      -1.56954741 [kJ/mol]
    Dispersion sSAPT0              -1.10142609 [mEh]      -0.69115531 [kcal/mol]      -2.89179380 [kJ/mol]
  Total sSAPT0                     -7.44429802 [mEh]      -4.67136753 [kcal/mol]     -19.54500177 [kJ/mol]
  --------------------------------------------------------------------------------------------------------

*** Psi4 exiting successfully. Buy a developer a beer!
