                               Psi4 1.4a2.dev224

  ==> Input File <==

--------------------------------------------------------------------------
#Generated by lconvert.py for sapt job

memory 20 GB

molecule  {
0 1
  P      -0.034540   -0.218720    1.198360
  O       0.993980   -0.661090    0.063490
  O       0.696450    1.080590    1.710840
  O      -0.383500   -1.249650    2.200630
  O      -1.353240    0.254370    0.433090
  H       0.467830    1.271440    2.645310
  H      -1.166890    0.933210   -0.225370
  H       0.849670   -1.579150   -0.192290
--
0 1
  P       0.067300    0.281920    6.383740
  O       1.210730    0.630550    7.441810
  O       0.157060    1.482300    5.272680
  O      -1.286350    0.190530    6.957720
  O       0.740370   -0.904490    5.623020
  H      -0.584560    2.080800    5.423480
  H       0.356140   -1.090020    4.725380
  H       0.801670    0.796870    8.298050
units angstrom
no_reorient
symmetry c1
}

set {
scf_type DF
basis aug-cc-pvdz
freeze_core True
guess SAD
}
energy('sapt2+')
--------------------------------------------------------------------------

  //              Dimer HF             //
    Molecular point group: c1
  Charge       = 0
  Multiplicity = 1
  Basis Set: AUG-CC-PVDZ
    Blend: AUG-CC-PVDZ
  Basis Set: (AUG-CC-PVDZ AUX)
    Blend: AUG-CC-PVDZ-JKFIT
  @DF-RHF Final Energy: -1284.18235341700256
    Total Energy =                      -1284.1823534170025596
  //            Monomer A HF           //
    Molecular point group: c1
  Multiplicity = 1
  Basis Set: AUG-CC-PVDZ
    Blend: AUG-CC-PVDZ
  Basis Set: (AUG-CC-PVDZ AUX)
    Blend: AUG-CC-PVDZ-JKFIT
  @DF-RHF Final Energy:  -642.08597898131643
    Total Energy =                       -642.0859789813164298
  //            Monomer B HF           //
    Molecular point group: c1

    Geometry (in Angstrom), charge = 0, multiplicity = 1:

       Center              X                  Y                   Z               Mass
    ------------   -----------------  -----------------  -----------------  -----------------
      Gh(P)          -0.106742129265    -0.308308207529    -2.531008659779    30.973761998420
      Gh(O)           0.921777870735    -0.750678207529    -3.665878659779    15.994914619570
      Gh(O)           0.624247870735     0.991001792471    -2.018528659779    15.994914619570
      Gh(O)          -0.455702129265    -1.339238207529    -1.528738659779    15.994914619570
      Gh(O)          -1.425442129265     0.164781792471    -3.296278659779    15.994914619570
      Gh(H)           0.395627870735     1.181851792471    -1.084058659779     1.007825032230
      Gh(H)          -1.239092129265     0.843621792471    -3.954738659779     1.007825032230
      Gh(H)           0.777467870735    -1.668738207529    -3.921658659779     1.007825032230
         P           -0.004902129265     0.192331792471     2.654371340221    30.973761998420
         O            1.138527870735     0.540961792471     3.712441340221    15.994914619570
         O            0.084857870735     1.392711792471     1.543311340221    15.994914619570
         O           -1.358552129265     0.100941792471     3.228351340221    15.994914619570
         O            0.668167870735    -0.994078207529     1.893651340221    15.994914619570
         H           -0.656762129265     1.991211792471     1.694111340221     1.007825032230
         H            0.283937870735    -1.179608207529     0.996011340221     1.007825032230
         H            0.729467870735     0.707281792471     4.568681340221     1.007825032230

  Charge       = 0
  Multiplicity = 1
  Basis Set: AUG-CC-PVDZ
    Blend: AUG-CC-PVDZ
  Basis Set: (AUG-CC-PVDZ AUX)
    Blend: AUG-CC-PVDZ-JKFIT

    Orbital Energies [Eh]
    ---------------------

    Doubly Occupied:

       1A    -80.152581     2A    -20.636036     3A    -20.622064
       4A    -20.614341     5A    -20.536413     6A     -7.668991
       7A     -5.567621     8A     -5.567148     9A     -5.566735
      10A     -1.477753    11A     -1.406358    12A     -1.391147
      13A     -1.315411    14A     -0.884011    15A     -0.769137
      16A     -0.740657    17A     -0.695126    18A     -0.653807
      19A     -0.636945    20A     -0.598284    21A     -0.590231
      22A     -0.552667    23A     -0.537139    24A     -0.480702
      25A     -0.476329

  @DF-RHF Final Energy:  -642.08525737533387

   => Energetics <=

    Nuclear Repulsion Energy =            279.7253135899598533
    One-Electron Energy =               -1443.3458791651546562
    Two-Electron Energy =                 521.5353081998609923
    Total Energy =                       -642.0852573753338675

  Dipole Moment: [D]
     X:     0.3845      Y:     0.6237      Z:    -1.0398     Total:     1.2721

    SAPT Results
  --------------------------------------------------------------------------------------------------------
    Electrostatics                 -9.90626785 [mEh]      -6.21627693 [kcal/mol]     -26.00890266 [kJ/mol]
      Elst10,r                    -10.88446369 [mEh]      -6.83010408 [kcal/mol]     -28.57715549 [kJ/mol]
      Elst12,r                      0.97819584 [mEh]       0.61382716 [kcal/mol]       2.56825282 [kJ/mol]

    Exchange                        2.00799904 [mEh]       1.26003842 [kcal/mol]       5.27200074 [kJ/mol]
      Exch10                        1.50594531 [mEh]       0.94499495 [kcal/mol]       3.95385888 [kJ/mol]
      Exch10(S^2)                   1.50493730 [mEh]       0.94436241 [kcal/mol]       3.95121233 [kJ/mol]
      Exch11(S^2)                  -0.01090927 [mEh]      -0.00684567 [kcal/mol]      -0.02864229 [kJ/mol]
      Exch12(S^2)                   0.51296299 [mEh]       0.32188914 [kcal/mol]       1.34678415 [kJ/mol]

    Induction                      -1.90201664 [mEh]      -1.19353346 [kcal/mol]      -4.99374399 [kJ/mol]
      Ind20,r                      -1.75363344 [mEh]      -1.10042160 [kcal/mol]      -4.60416397 [kJ/mol]
      Ind22                        -0.20207905 [mEh]      -0.12680652 [kcal/mol]      -0.53055847 [kJ/mol]
      Exch-Ind20,r                  0.33500724 [mEh]       0.21022022 [kcal/mol]       0.87956139 [kJ/mol]
      Exch-Ind22                    0.03860439 [mEh]       0.02422462 [kcal/mol]       0.10135580 [kJ/mol]
      delta HF,r (2)               -0.31991577 [mEh]      -0.20075018 [kcal/mol]      -0.83993875 [kJ/mol]

    Dispersion                     -2.72782647 [mEh]      -1.71173695 [kcal/mol]      -7.16190742 [kJ/mol]
      Disp20                       -2.38806163 [mEh]      -1.49853130 [kcal/mol]      -6.26985494 [kJ/mol]
      Disp21                        0.20058116 [mEh]       0.12586658 [kcal/mol]       0.52662575 [kJ/mol]
      Disp22 (SDQ)                 -0.16906969 [mEh]      -0.10609283 [kcal/mol]      -0.44389242 [kJ/mol]
      Disp22 (T)                   -0.45759292 [mEh]      -0.28714390 [kcal/mol]      -1.20141006 [kJ/mol]
      Est. Disp22 (T)              -0.48764994 [mEh]      -0.30600496 [kcal/mol]      -1.28032473 [kJ/mol]
      Exch-Disp20                   0.11637363 [mEh]       0.07302555 [kcal/mol]       0.30553892 [kJ/mol]

  Total HF                        -11.11706035 [mEh]      -6.97606069 [kcal/mol]     -29.18783793 [kJ/mol]
  Total SAPT0                     -13.38874835 [mEh]      -8.40156643 [kcal/mol]     -35.15215395 [kJ/mol]
  Total SAPT2                     -12.07197345 [mEh]      -7.57527771 [kcal/mol]     -31.69496193 [kJ/mol]
  Total SAPT2+                    -12.52811193 [mEh]      -7.86150892 [kcal/mol]     -32.89255333 [kJ/mol]

  Special recipe for scaled SAPT0 (see Manual):
    Electrostatics sSAPT0         -10.88446369 [mEh]      -6.83010408 [kcal/mol]     -28.57715549 [kJ/mol]
    Exchange sSAPT0                 1.50594531 [mEh]       0.94499495 [kcal/mol]       3.95385888 [kJ/mol]
    Induction sSAPT0               -1.73786835 [mEh]      -1.09052886 [kcal/mol]      -4.56277274 [kJ/mol]
    Dispersion sSAPT0              -2.27145400 [mEh]      -1.42535890 [kcal/mol]      -5.96370165 [kJ/mol]
  Total sSAPT0                    -13.38784073 [mEh]      -8.40099689 [kcal/mol]     -35.14977100 [kJ/mol]
  --------------------------------------------------------------------------------------------------------

*** Psi4 exiting successfully. Buy a developer a beer!
