                               Psi4 1.4a2.dev224

  ==> Input File <==

--------------------------------------------------------------------------
#Generated by lconvert.py for sapt job

memory 20 GB

molecule  {
0 1
  P      -0.034540   -0.218720    1.198360
  O       0.993980   -0.661090    0.063490
  O       0.696450    1.080590    1.710840
  O      -0.383500   -1.249650    2.200630
  O      -1.353240    0.254370    0.433090
  H       0.467830    1.271440    2.645310
  H      -1.166890    0.933210   -0.225370
  H       0.849670   -1.579150   -0.192290
--
0 1
  P      -0.071390    0.251990    5.910350
  O       1.072050    0.600620    6.968420
  O       0.018380    1.452370    4.799290
  O      -1.425030    0.160600    6.484330
  O       0.601690   -0.934420    5.149630
  H      -0.723240    2.050870    4.950090
  H       0.217460   -1.119950    4.251990
  H       0.662990    0.766940    7.824660
units angstrom
no_reorient
symmetry c1
}

set {
scf_type DF
basis aug-cc-pvdz
freeze_core True
guess SAD
}
energy('sapt2+')
--------------------------------------------------------------------------

  //              Dimer HF             //
    Molecular point group: c1
  Charge       = 0
  Multiplicity = 1
  Basis Set: AUG-CC-PVDZ
    Blend: AUG-CC-PVDZ
  Basis Set: (AUG-CC-PVDZ AUX)
    Blend: AUG-CC-PVDZ-JKFIT
  @DF-RHF Final Energy: -1284.19042481661904
    Total Energy =                      -1284.1904248166190428
  //            Monomer A HF           //
    Molecular point group: c1
  Multiplicity = 1
  Basis Set: AUG-CC-PVDZ
    Blend: AUG-CC-PVDZ
  Basis Set: (AUG-CC-PVDZ AUX)
    Blend: AUG-CC-PVDZ-JKFIT
  @DF-RHF Final Energy:  -642.08637798562734
    Total Energy =                       -642.0863779856273368
  //            Monomer B HF           //
    Molecular point group: c1

    Geometry (in Angstrom), charge = 0, multiplicity = 1:

       Center              X                  Y                   Z               Mass
    ------------   -----------------  -----------------  -----------------  -----------------
      Gh(P)          -0.037400548599    -0.293343207529    -2.294313659779    30.973761998420
      Gh(O)           0.991119451401    -0.735713207529    -3.429183659779    15.994914619570
      Gh(O)           0.693589451401     1.005966792471    -1.781833659779    15.994914619570
      Gh(O)          -0.386360548599    -1.324273207529    -1.292043659779    15.994914619570
      Gh(O)          -1.356100548599     0.179746792471    -3.059583659779    15.994914619570
      Gh(H)           0.464969451401     1.196816792471    -0.847363659779     1.007825032230
      Gh(H)          -1.169750548599     0.858586792471    -3.718043659779     1.007825032230
      Gh(H)           0.846809451401    -1.653773207529    -3.684963659779     1.007825032230
         P           -0.074250548599     0.177366792471     2.417676340221    30.973761998420
         O            1.069189451401     0.525996792471     3.475746340221    15.994914619570
         O            0.015519451401     1.377746792471     1.306616340221    15.994914619570
         O           -1.427890548599     0.085976792471     2.991656340221    15.994914619570
         O            0.598829451401    -1.009043207529     1.656956340221    15.994914619570
         H           -0.726100548599     1.976246792471     1.457416340221     1.007825032230
         H            0.214599451401    -1.194573207529     0.759316340221     1.007825032230
         H            0.660129451401     0.692316792471     4.331986340221     1.007825032230

  Charge       = 0
  Multiplicity = 1
  Basis Set: AUG-CC-PVDZ
    Blend: AUG-CC-PVDZ
  Basis Set: (AUG-CC-PVDZ AUX)
    Blend: AUG-CC-PVDZ-JKFIT

    Orbital Energies [Eh]
    ---------------------

    Doubly Occupied:

       1A    -80.152490     2A    -20.636038     3A    -20.622046
       4A    -20.614365     5A    -20.536407     6A     -7.668895
       7A     -5.567527     8A     -5.567053     9A     -5.566642
      10A     -1.477707    11A     -1.406324    12A     -1.391105
      13A     -1.315374    14A     -0.883962    15A     -0.769092
      16A     -0.740612    17A     -0.695079    18A     -0.653763
      19A     -0.636911    20A     -0.598250    21A     -0.590187
      22A     -0.552637    23A     -0.537104    24A     -0.480678
      25A     -0.476294

  @DF-RHF Final Energy:  -642.08552987290011

   => Energetics <=

    Nuclear Repulsion Energy =            279.7252757021649927
    One-Electron Energy =               -1443.3485306969553221
    Two-Electron Energy =                 521.5377251218902757
    Total Energy =                       -642.0855298729001106

  Dipole Moment: [D]
     X:     0.3860      Y:     0.6223      Z:    -1.0415     Total:     1.2732

    SAPT Results
  --------------------------------------------------------------------------------------------------------
    Electrostatics                -19.75240772 [mEh]     -12.39482297 [kcal/mol]     -51.85993932 [kJ/mol]
      Elst10,r                    -21.26163143 [mEh]     -13.34187515 [kcal/mol]     -55.82240563 [kJ/mol]
      Elst12,r                      1.50922371 [mEh]       0.94705218 [kcal/mol]       3.96246631 [kJ/mol]

    Exchange                       10.68889768 [mEh]       6.70738456 [kcal/mol]      28.06369699 [kJ/mol]
      Exch10                        8.58600787 [mEh]       5.38780128 [kcal/mol]      22.54256057 [kJ/mol]
      Exch10(S^2)                   8.55971405 [mEh]       5.37130166 [kcal/mol]      22.47352613 [kJ/mol]
      Exch11(S^2)                  -0.02615633 [mEh]      -0.01641334 [kcal/mol]      -0.06867344 [kJ/mol]
      Exch12(S^2)                   2.12904613 [mEh]       1.33599662 [kcal/mol]       5.58980986 [kJ/mol]

    Induction                      -6.42127678 [mEh]      -4.02941202 [kcal/mol]     -16.85905987 [kJ/mol]
      Ind20,r                      -6.17086805 [mEh]      -3.87227816 [kcal/mol]     -16.20161183 [kJ/mol]
      Ind22                        -0.87155093 [mEh]      -0.54690647 [kcal/mol]      -2.28825665 [kJ/mol]
      Exch-Ind20,r                  2.06468566 [mEh]       1.29560982 [kcal/mol]       5.42083147 [kJ/mol]
      Exch-Ind22                    0.29160868 [mEh]       0.18298721 [kcal/mol]       0.76561850 [kJ/mol]
      delta HF,r (2)               -1.73515215 [mEh]      -1.08882441 [kcal/mol]      -4.55564135 [kJ/mol]

    Dispersion                     -6.09545909 [mEh]      -3.82495832 [kcal/mol]     -16.00362563 [kJ/mol]
      Disp20                       -5.63779549 [mEh]      -3.53777008 [kcal/mol]     -14.80203001 [kJ/mol]
      Disp21                        0.44778399 [mEh]       0.28098870 [kcal/mol]       1.17565671 [kJ/mol]
      Disp22 (SDQ)                 -0.37929659 [mEh]      -0.23801221 [kcal/mol]      -0.99584307 [kJ/mol]
      Disp22 (T)                   -1.01566832 [mEh]      -0.63734149 [kcal/mol]      -2.66663681 [kJ/mol]
      Est. Disp22 (T)              -1.10149674 [mEh]      -0.69119964 [kcal/mol]      -2.89197929 [kJ/mol]
      Exch-Disp20                   0.57534574 [mEh]       0.36103490 [kcal/mol]       1.51057003 [kJ/mol]

  Total HF                        -18.51695809 [mEh]     -11.61956663 [kcal/mol]     -48.61626677 [kJ/mol]
  Total SAPT0                     -23.57940784 [mEh]     -14.79630180 [kcal/mol]     -61.90772675 [kJ/mol]
  Total SAPT2                     -20.54723657 [mEh]     -12.89358561 [kcal/mol]     -53.94676218 [kJ/mol]
  Total SAPT2+                    -21.58024591 [mEh]     -13.54180875 [kcal/mol]     -56.65892783 [kJ/mol]

  Special recipe for scaled SAPT0 (see Manual):
    Electrostatics sSAPT0         -21.26163143 [mEh]     -13.34187515 [kcal/mol]     -55.82240563 [kJ/mol]
    Exchange sSAPT0                 8.58600787 [mEh]       5.38780128 [kcal/mol]      22.54256057 [kJ/mol]
    Induction sSAPT0               -5.82224905 [mEh]      -3.65351644 [kcal/mol]     -15.28631279 [kJ/mol]
    Dispersion sSAPT0              -5.05713138 [mEh]      -3.17339785 [kcal/mol]     -13.27749661 [kJ/mol]
  Total sSAPT0                    -23.55500399 [mEh]     -14.78098816 [kcal/mol]     -61.84365445 [kJ/mol]
  --------------------------------------------------------------------------------------------------------

*** Psi4 exiting successfully. Buy a developer a beer!
