                               Psi4 1.4a2.dev224

  ==> Input File <==

--------------------------------------------------------------------------
#Generated by lconvert.py for sapt job

memory 20 GB

molecule  {
0 1
  F      -0.104450    0.931590   -0.417500
  C      -0.688390   -0.272700   -0.040760
  H       0.091660   -0.948230    0.296400
  H      -1.393720   -0.079640    0.761890
  H      -1.204950   -0.690900   -0.899420
--
0 1
  O       3.199700   -0.083030    0.322110
  H       4.019840    0.405120    0.235600
  H       2.527950    0.535510    0.020410
units angstrom
no_reorient
symmetry c1
}

set {
scf_type DF
basis aug-cc-pvdz
freeze_core True
guess SAD
}
energy('sapt2+')
--------------------------------------------------------------------------

  //              Dimer HF             //
    Molecular point group: c1
  Charge       = 0
  Multiplicity = 1
  Basis Set: AUG-CC-PVDZ
    Blend: AUG-CC-PVDZ
  Basis Set: (AUG-CC-PVDZ AUX)
    Blend: AUG-CC-PVDZ-JKFIT
  @DF-RHF Final Energy:  -215.10201869267860
    Total Energy =                       -215.1020186926785982
  //            Monomer A HF           //
    Molecular point group: c1
  Multiplicity = 1
  Basis Set: AUG-CC-PVDZ
    Blend: AUG-CC-PVDZ
  Basis Set: (AUG-CC-PVDZ AUX)
    Blend: AUG-CC-PVDZ-JKFIT
  @DF-RHF Final Energy:  -139.05748562519537
    Total Energy =                       -139.0574856251953690
  //            Monomer B HF           //
    Molecular point group: c1

    Geometry (in Angstrom), charge = 0, multiplicity = 1:

       Center              X                  Y                   Z               Mass
    ------------   -----------------  -----------------  -----------------  -----------------
      Gh(F)          -0.969415428983     0.694929274992    -0.362712933284    18.998403162730
      Gh(C)          -1.553355428983    -0.509360725008     0.014027066716    12.000000000000
      Gh(H)          -0.773305428983    -1.184890725008     0.351187066716     1.007825032230
      Gh(H)          -2.258685428983    -0.316300725008     0.816677066716     1.007825032230
      Gh(H)          -2.069915428983    -0.927560725008    -0.844632933284     1.007825032230
         O            2.334734571017    -0.319690725008     0.376897066716    15.994914619570
         H            3.154874571017     0.168459274992     0.290387066716     1.007825032230
         H            1.662984571017     0.298849274992     0.075197066716     1.007825032230

  Charge       = 0
  Multiplicity = 1
  Basis Set: AUG-CC-PVDZ
    Blend: AUG-CC-PVDZ
  Basis Set: (AUG-CC-PVDZ AUX)
    Blend: AUG-CC-PVDZ-JKFIT

    Orbital Energies [Eh]
    ---------------------

    Doubly Occupied:

       1A    -20.577866     2A     -1.355619     3A     -0.716742
       4A     -0.586076     5A     -0.509303

  @DF-RHF Final Energy:   -76.04134838198406

   => Energetics <=

    Nuclear Repulsion Energy =              9.1692643486967107
    One-Electron Energy =                -122.9300169846497823
    Two-Electron Energy =                  37.7194042539690031
    Total Energy =                        -76.0413483819840650

  Dipole Moment: [D]
     X:     0.2528      Y:     1.8821      Z:    -0.6601     Total:     2.0105

    SAPT Results
  --------------------------------------------------------------------------------------------------------
    Electrostatics                 -3.01708485 [mEh]      -1.89324932 [kcal/mol]      -7.92135517 [kJ/mol]
      Elst10,r                     -3.38110392 [mEh]      -2.12167474 [kcal/mol]      -8.87708713 [kJ/mol]
      Elst12,r                      0.36401908 [mEh]       0.22842542 [kcal/mol]       0.95573196 [kJ/mol]

    Exchange                        0.61816157 [mEh]       0.38790224 [kcal/mol]       1.62298297 [kJ/mol]
      Exch10                        0.46983941 [mEh]       0.29482868 [kcal/mol]       1.23356320 [kJ/mol]
      Exch10(S^2)                   0.46973219 [mEh]       0.29476140 [kcal/mol]       1.23328169 [kJ/mol]
      Exch11(S^2)                  -0.00607310 [mEh]      -0.00381093 [kcal/mol]      -0.01594493 [kJ/mol]
      Exch12(S^2)                   0.15439526 [mEh]       0.09688449 [kcal/mol]       0.40536469 [kJ/mol]

    Induction                      -0.29637465 [mEh]      -0.18597790 [kcal/mol]      -0.77813155 [kJ/mol]
      Ind20,r                      -0.28604112 [mEh]      -0.17949351 [kcal/mol]      -0.75100085 [kJ/mol]
      Ind22                        -0.02893917 [mEh]      -0.01815961 [kcal/mol]      -0.07597979 [kJ/mol]
      Exch-Ind20,r                  0.05916204 [mEh]       0.03712474 [kcal/mol]       0.15532993 [kJ/mol]
      Exch-Ind22                    0.00598551 [mEh]       0.00375596 [kcal/mol]       0.01571494 [kJ/mol]
      delta HF,r (2)               -0.04654191 [mEh]      -0.02920549 [kcal/mol]      -0.12219578 [kJ/mol]

    Dispersion                     -0.96986274 [mEh]      -0.60859806 [kcal/mol]      -2.54637427 [kJ/mol]
      Disp20                       -0.87102721 [mEh]      -0.54657782 [kcal/mol]      -2.28688161 [kJ/mol]
      Disp21                        0.02522452 [mEh]       0.01582863 [kcal/mol]       0.06622698 [kJ/mol]
      Disp22 (SDQ)                 -0.02587374 [mEh]      -0.01623602 [kcal/mol]      -0.06793149 [kJ/mol]
      Disp22 (T)                   -0.12414953 [mEh]      -0.07790500 [kcal/mol]      -0.32595454 [kJ/mol]
      Est. Disp22 (T)              -0.13324175 [mEh]      -0.08361046 [kcal/mol]      -0.34982618 [kJ/mol]
      Exch-Disp20                   0.03505544 [mEh]       0.02199762 [kcal/mol]       0.09203803 [kJ/mol]

  Total HF                         -3.18468550 [mEh]      -1.99842032 [kcal/mol]      -8.36139063 [kJ/mol]
  Total SAPT0                      -4.02065727 [mEh]      -2.52300053 [kcal/mol]     -10.55623421 [kJ/mol]
  Total SAPT2                      -3.53126971 [mEh]      -2.21590519 [kcal/mol]      -9.27134733 [kJ/mol]
  Total SAPT2+                     -3.66516067 [mEh]      -2.29992305 [kcal/mol]      -9.62287802 [kJ/mol]

  Special recipe for scaled SAPT0 (see Manual):
    Electrostatics sSAPT0          -3.38110392 [mEh]      -2.12167474 [kcal/mol]      -8.87708713 [kJ/mol]
    Exchange sSAPT0                 0.46983941 [mEh]       0.29482868 [kcal/mol]       1.23356320 [kJ/mol]
    Induction sSAPT0               -0.27338046 [mEh]      -0.17154883 [kcal/mol]      -0.71776031 [kJ/mol]
    Dispersion sSAPT0              -0.83594776 [mEh]      -0.52456514 [kcal/mol]      -2.19478054 [kJ/mol]
  Total sSAPT0                     -4.02059273 [mEh]      -2.52296003 [kcal/mol]     -10.55606477 [kJ/mol]
  --------------------------------------------------------------------------------------------------------

*** Psi4 exiting successfully. Buy a developer a beer!
