                               Psi4 1.4a2.dev224

  ==> Input File <==

--------------------------------------------------------------------------
#Generated by lconvert.py for sapt job

memory 20 GB

molecule  {
0 1
  F      -0.104450    0.931590   -0.417500
  C      -0.688390   -0.272700   -0.040760
  H       0.091660   -0.948230    0.296400
  H      -1.393720   -0.079640    0.761890
  H      -1.204950   -0.690900   -0.899420
--
0 1
  O       3.813090   -0.150470    0.415070
  H       4.633230    0.337680    0.328570
  H       3.141340    0.468060    0.113380
units angstrom
no_reorient
symmetry c1
}

set {
scf_type DF
basis aug-cc-pvdz
freeze_core True
guess SAD
}
energy('sapt2+')
--------------------------------------------------------------------------

  //              Dimer HF             //
    Molecular point group: c1
  Charge       = 0
  Multiplicity = 1
  Basis Set: AUG-CC-PVDZ
    Blend: AUG-CC-PVDZ
  Basis Set: (AUG-CC-PVDZ AUX)
    Blend: AUG-CC-PVDZ-JKFIT
  @DF-RHF Final Energy:  -215.10058041634417
    Total Energy =                       -215.1005804163441724
  //            Monomer A HF           //
    Molecular point group: c1
  Multiplicity = 1
  Basis Set: AUG-CC-PVDZ
    Blend: AUG-CC-PVDZ
  Basis Set: (AUG-CC-PVDZ AUX)
    Blend: AUG-CC-PVDZ-JKFIT
  @DF-RHF Final Energy:  -139.05743553658675
    Total Energy =                       -139.0574355365867518
  //            Monomer B HF           //
    Molecular point group: c1

    Geometry (in Angstrom), charge = 0, multiplicity = 1:

       Center              X                  Y                   Z               Mass
    ------------   -----------------  -----------------  -----------------  -----------------
      Gh(F)          -1.181734890584     0.718273221419    -0.394890593121    18.998403162730
      Gh(C)          -1.765674890584    -0.486016778581    -0.018150593121    12.000000000000
      Gh(H)          -0.985624890584    -1.161546778581     0.319009406879     1.007825032230
      Gh(H)          -2.471004890584    -0.292956778581     0.784499406879     1.007825032230
      Gh(H)          -2.282234890584    -0.904216778581    -0.876810593121     1.007825032230
         O            2.735805109416    -0.363786778581     0.437679406879    15.994914619570
         H            3.555945109416     0.124363221419     0.351179406879     1.007825032230
         H            2.064055109416     0.254743221419     0.135989406879     1.007825032230

  Charge       = 0
  Multiplicity = 1
  Basis Set: AUG-CC-PVDZ
    Blend: AUG-CC-PVDZ
  Basis Set: (AUG-CC-PVDZ AUX)
    Blend: AUG-CC-PVDZ-JKFIT

    Orbital Energies [Eh]
    ---------------------

    Doubly Occupied:

       1A    -20.577928     2A     -1.355604     3A     -0.716759
       4A     -0.586111     5A     -0.509338

  @DF-RHF Final Energy:   -76.04125606981493

   => Energetics <=

    Nuclear Repulsion Energy =              9.1693125091783685
    One-Electron Energy =                -122.9296605443377643
    Two-Electron Energy =                  37.7190919653444681
    Total Energy =                        -76.0412560698149207

  Dipole Moment: [D]
     X:     0.2533      Y:     1.8819      Z:    -0.6600     Total:     2.0103

    SAPT Results
  --------------------------------------------------------------------------------------------------------
    Electrostatics                 -1.60957770 [mEh]      -1.01002526 [kcal/mol]      -4.22594568 [kJ/mol]
      Elst10,r                     -1.85371954 [mEh]      -1.16322657 [kcal/mol]      -4.86693998 [kJ/mol]
      Elst12,r                      0.24414183 [mEh]       0.15320131 [kcal/mol]       0.64099430 [kJ/mol]

    Exchange                        0.05260128 [mEh]       0.03300780 [kcal/mol]       0.13810464 [kJ/mol]
      Exch10                        0.03776562 [mEh]       0.02369828 [kcal/mol]       0.09915362 [kJ/mol]
      Exch10(S^2)                   0.03776485 [mEh]       0.02369780 [kcal/mol]       0.09915160 [kJ/mol]
      Exch11(S^2)                  -0.00079860 [mEh]      -0.00050113 [kcal/mol]      -0.00209673 [kJ/mol]
      Exch12(S^2)                   0.01563426 [mEh]       0.00981065 [kcal/mol]       0.04104775 [kJ/mol]

    Induction                      -0.07377710 [mEh]      -0.04629583 [kcal/mol]      -0.19370175 [kJ/mol]
      Ind20,r                      -0.07034567 [mEh]      -0.04414257 [kcal/mol]      -0.18469253 [kJ/mol]
      Ind22                        -0.00097066 [mEh]      -0.00060910 [kcal/mol]      -0.00254848 [kJ/mol]
      Exch-Ind20,r                  0.00359386 [mEh]       0.00225518 [kcal/mol]       0.00943569 [kJ/mol]
      Exch-Ind22                    0.00004959 [mEh]       0.00003112 [kcal/mol]       0.00013020 [kJ/mol]
      delta HF,r (2)               -0.00610422 [mEh]      -0.00383045 [kcal/mol]      -0.01602662 [kJ/mol]

    Dispersion                     -0.34424949 [mEh]      -0.21601982 [kcal/mol]      -0.90382691 [kJ/mol]
      Disp20                       -0.30627160 [mEh]      -0.19218833 [kcal/mol]      -0.80411597 [kJ/mol]
      Disp21                        0.01202613 [mEh]       0.00754651 [kcal/mol]       0.03157459 [kJ/mol]
      Disp22 (SDQ)                 -0.00656212 [mEh]      -0.00411779 [kcal/mol]      -0.01722883 [kJ/mol]
      Disp22 (T)                   -0.04496236 [mEh]      -0.02821431 [kcal/mol]      -0.11804867 [kJ/mol]
      Est. Disp22 (T)              -0.04703825 [mEh]      -0.02951695 [kcal/mol]      -0.12349892 [kJ/mol]
      Exch-Disp20                   0.00359635 [mEh]       0.00225675 [kcal/mol]       0.00944223 [kJ/mol]

  Total HF                         -1.88880994 [mEh]      -1.18524613 [kcal/mol]      -4.95906982 [kJ/mol]
  Total SAPT0                      -2.19148519 [mEh]      -1.37517772 [kcal/mol]      -5.75374357 [kJ/mol]
  Total SAPT2                      -1.93342877 [mEh]      -1.21324487 [kcal/mol]      -5.07621653 [kJ/mol]
  Total SAPT2+                     -1.97500301 [mEh]      -1.23933310 [kcal/mol]      -5.18536969 [kJ/mol]

  Special recipe for scaled SAPT0 (see Manual):
    Electrostatics sSAPT0          -1.85371954 [mEh]      -1.16322657 [kcal/mol]      -4.86693998 [kJ/mol]
    Exchange sSAPT0                 0.03776562 [mEh]       0.02369828 [kcal/mol]       0.09915362 [kJ/mol]
    Induction sSAPT0               -0.07285581 [mEh]      -0.04571771 [kcal/mol]      -0.19128289 [kJ/mol]
    Dispersion sSAPT0              -0.30267502 [mEh]      -0.18993145 [kcal/mol]      -0.79467317 [kJ/mol]
  Total sSAPT0                     -2.19148475 [mEh]      -1.37517744 [kcal/mol]      -5.75374241 [kJ/mol]
  --------------------------------------------------------------------------------------------------------

*** Psi4 exiting successfully. Buy a developer a beer!
