                               Psi4 1.4a2.dev224

  ==> Input File <==

--------------------------------------------------------------------------
#Generated by lconvert.py for sapt job

memory 20 GB

molecule  {
0 1
  F      -0.104450    0.931590   -0.417500
  C      -0.688390   -0.272700   -0.040760
  H       0.091660   -0.948230    0.296400
  H      -1.393720   -0.079640    0.761890
  H      -1.204950   -0.690900   -0.899420
--
0 1
  O       4.426470   -0.217910    0.508040
  H       5.246610    0.270230    0.421540
  H       3.754720    0.400620    0.206350
units angstrom
no_reorient
symmetry c1
}

set {
scf_type DF
basis aug-cc-pvdz
freeze_core True
guess SAD
}
energy('sapt2+')
--------------------------------------------------------------------------

  //              Dimer HF             //
    Molecular point group: c1
  Charge       = 0
  Multiplicity = 1
  Basis Set: AUG-CC-PVDZ
    Blend: AUG-CC-PVDZ
  Basis Set: (AUG-CC-PVDZ AUX)
    Blend: AUG-CC-PVDZ-JKFIT
  @DF-RHF Final Energy:  -215.09979710667301
    Total Energy =                       -215.0997971066730088
  //            Monomer A HF           //
    Molecular point group: c1
  Multiplicity = 1
  Basis Set: AUG-CC-PVDZ
    Blend: AUG-CC-PVDZ
  Basis Set: (AUG-CC-PVDZ AUX)
    Blend: AUG-CC-PVDZ-JKFIT
  @DF-RHF Final Energy:  -139.05740776940297
    Total Energy =                       -139.0574077694029711
  //            Monomer B HF           //
    Molecular point group: c1

    Geometry (in Angstrom), charge = 0, multiplicity = 1:

       Center              X                  Y                   Z               Mass
    ------------   -----------------  -----------------  -----------------  -----------------
      Gh(F)          -1.394050890775     0.741617167846    -0.427071326985    18.998403162730
      Gh(C)          -1.977990890775    -0.462672832154    -0.050331326985    12.000000000000
      Gh(H)          -1.197940890775    -1.138202832154     0.286828673015     1.007825032230
      Gh(H)          -2.683320890775    -0.269612832154     0.752318673015     1.007825032230
      Gh(H)          -2.494550890775    -0.880872832154    -0.908991326985     1.007825032230
         O            3.136869109225    -0.407882832154     0.498468673015    15.994914619570
         H            3.957009109225     0.080257167846     0.411968673015     1.007825032230
         H            2.465119109225     0.210647167846     0.196778673015     1.007825032230

  Charge       = 0
  Multiplicity = 1
  Basis Set: AUG-CC-PVDZ
    Blend: AUG-CC-PVDZ
  Basis Set: (AUG-CC-PVDZ AUX)
    Blend: AUG-CC-PVDZ-JKFIT

    Orbital Energies [Eh]
    ---------------------

    Doubly Occupied:

       1A    -20.577952     2A     -1.355592     3A     -0.716763
       4A     -0.586123     5A     -0.509348

  @DF-RHF Final Energy:   -76.04122106376886

   => Energetics <=

    Nuclear Repulsion Energy =              9.1693357897296437
    One-Electron Energy =                -122.9295582305222467
    Two-Electron Energy =                  37.7190013770237513
    Total Energy =                        -76.0412210637688588

  Dipole Moment: [D]
     X:     0.2535      Y:     1.8817      Z:    -0.6599     Total:     2.0101

    SAPT Results
  --------------------------------------------------------------------------------------------------------
    Electrostatics                 -0.98453923 [mEh]      -0.61780770 [kcal/mol]      -2.58490741 [kJ/mol]
      Elst10,r                     -1.14496992 [mEh]      -0.71847947 [kcal/mol]      -3.00611811 [kJ/mol]
      Elst12,r                      0.16043069 [mEh]       0.10067178 [kcal/mol]       0.42121071 [kJ/mol]

    Exchange                        0.00440452 [mEh]       0.00276388 [kcal/mol]       0.01156407 [kJ/mol]
      Exch10                        0.00304288 [mEh]       0.00190944 [kcal/mol]       0.00798909 [kJ/mol]
      Exch10(S^2)                   0.00304288 [mEh]       0.00190943 [kcal/mol]       0.00798907 [kJ/mol]
      Exch11(S^2)                  -0.00009338 [mEh]      -0.00005860 [kcal/mol]      -0.00024516 [kJ/mol]
      Exch12(S^2)                   0.00145502 [mEh]       0.00091304 [kcal/mol]       0.00382015 [kJ/mol]

    Induction                      -0.02569824 [mEh]      -0.01612589 [kcal/mol]      -0.06747073 [kJ/mol]
      Ind20,r                      -0.02499636 [mEh]      -0.01568545 [kcal/mol]      -0.06562792 [kJ/mol]
      Ind22                         0.00065469 [mEh]       0.00041082 [kcal/mol]       0.00171888 [kJ/mol]
      Exch-Ind20,r                  0.00024698 [mEh]       0.00015498 [kcal/mol]       0.00064845 [kJ/mol]
      Exch-Ind22                   -0.00000647 [mEh]      -0.00000406 [kcal/mol]      -0.00001698 [kJ/mol]
      delta HF,r (2)               -0.00159709 [mEh]      -0.00100219 [kcal/mol]      -0.00419315 [kJ/mol]

    Dispersion                     -0.14201867 [mEh]      -0.08911806 [kcal/mol]      -0.37286997 [kJ/mol]
      Disp20                       -0.12723736 [mEh]      -0.07984265 [kcal/mol]      -0.33406164 [kJ/mol]
      Disp21                        0.00618068 [mEh]       0.00387844 [kcal/mol]       0.01622738 [kJ/mol]
      Disp22 (SDQ)                 -0.00184830 [mEh]      -0.00115983 [kcal/mol]      -0.00485271 [kJ/mol]
      Disp22 (T)                   -0.01891534 [mEh]      -0.01186956 [kcal/mol]      -0.04966222 [kJ/mol]
      Est. Disp22 (T)              -0.01946592 [mEh]      -0.01221505 [kcal/mol]      -0.05110778 [kJ/mol]
      Exch-Disp20                   0.00035223 [mEh]       0.00022103 [kcal/mol]       0.00092478 [kJ/mol]

  Total HF                         -1.16827350 [mEh]      -0.73310269 [kcal/mol]      -3.06730165 [kJ/mol]
  Total SAPT0                      -1.29515863 [mEh]      -0.81272431 [kcal/mol]      -3.40043852 [kJ/mol]
  Total SAPT2                      -1.13271808 [mEh]      -0.71079133 [kcal/mol]      -2.97395092 [kJ/mol]
  Total SAPT2+                     -1.14785163 [mEh]      -0.72028777 [kcal/mol]      -3.01368403 [kJ/mol]

  Special recipe for scaled SAPT0 (see Manual):
    Electrostatics sSAPT0          -1.14496992 [mEh]      -0.71847947 [kcal/mol]      -3.00611811 [kJ/mol]
    Exchange sSAPT0                 0.00304288 [mEh]       0.00190944 [kcal/mol]       0.00798909 [kJ/mol]
    Induction sSAPT0               -0.02634646 [mEh]      -0.01653265 [kcal/mol]      -0.06917263 [kJ/mol]
    Dispersion sSAPT0              -0.12688513 [mEh]      -0.07962162 [kcal/mol]      -0.33313686 [kJ/mol]
  Total sSAPT0                     -1.29515863 [mEh]      -0.81272431 [kcal/mol]      -3.40043852 [kJ/mol]
  --------------------------------------------------------------------------------------------------------

*** Psi4 exiting successfully. Buy a developer a beer!
