                               Psi4 1.4a2.dev224

  ==> Input File <==

--------------------------------------------------------------------------
#Generated by lconvert.py for sapt job

memory 20 GB

molecule  {
0 1
  F       1.798660   -0.304510    0.000170
  C       1.627340    1.070430    0.000110
  H       0.564780    1.293980    0.000090
  H       2.096650    1.483170   -0.888820
  H       2.096630    1.483250    0.889000
--
0 1
  F      -4.145120   -0.151280    0.000240
  C      -3.973920   -1.526230    0.000150
  H      -4.443370   -1.938920   -0.888720
  H      -4.443160   -1.939010    0.889100
  H      -2.911380   -1.749890    0.000020
units angstrom
no_reorient
symmetry c1
}

set {
scf_type DF
basis aug-cc-pvdz
freeze_core True
guess SAD
}
energy('sapt2+')
--------------------------------------------------------------------------

  //              Dimer HF             //
    Molecular point group: c1
  Charge       = 0
  Multiplicity = 1
  Basis Set: AUG-CC-PVDZ
    Blend: AUG-CC-PVDZ
  Basis Set: (AUG-CC-PVDZ AUX)
    Blend: AUG-CC-PVDZ-JKFIT
  @DF-RHF Final Energy:  -278.11543968419585
    Total Energy =                       -278.1154396841958487
  //            Monomer A HF           //
    Molecular point group: c1
  Multiplicity = 1
  Basis Set: AUG-CC-PVDZ
    Blend: AUG-CC-PVDZ
  Basis Set: (AUG-CC-PVDZ AUX)
    Blend: AUG-CC-PVDZ-JKFIT
  @DF-RHF Final Energy:  -139.05744602414362
    Total Energy =                       -139.0574460241436441
  //            Monomer B HF           //
    Molecular point group: c1

    Geometry (in Angstrom), charge = 0, multiplicity = 1:

       Center              X                  Y                   Z               Mass
    ------------   -----------------  -----------------  -----------------  -----------------
      Gh(F)           2.971918124223    -0.076612495858    -0.000000252036    18.998403162730
      Gh(C)           2.800598124223     1.298327504142    -0.000060252036    12.000000000000
      Gh(H)           1.738038124223     1.521877504142    -0.000080252036     1.007825032230
      Gh(H)           3.269908124223     1.711067504142    -0.888990252036     1.007825032230
      Gh(H)           3.269888124223     1.711147504142     0.888829747964     1.007825032230
         F           -2.971861875777     0.076617504142     0.000069747964    18.998403162730
         C           -2.800661875777    -1.298332495858    -0.000020252036    12.000000000000
         H           -3.270111875777    -1.711022495858    -0.888890252036     1.007825032230
         H           -3.269901875777    -1.711112495858     0.888929747964     1.007825032230
         H           -1.738121875777    -1.521992495858    -0.000150252036     1.007825032230

  Charge       = 0
  Multiplicity = 1
  Basis Set: AUG-CC-PVDZ
    Blend: AUG-CC-PVDZ
  Basis Set: (AUG-CC-PVDZ AUX)
    Blend: AUG-CC-PVDZ-JKFIT

    Orbital Energies [Eh]
    ---------------------

    Doubly Occupied:

       1A    -26.290329     2A    -11.314848     3A     -1.591433
       4A     -0.958263     5A     -0.695654     6A     -0.695286
       7A     -0.674835     8A     -0.531939     9A     -0.531104

  @DF-RHF Final Energy:  -139.05744609389501

   => Energetics <=

    Nuclear Repulsion Energy =             37.3606231249084146
    One-Electron Energy =                -266.2687566015459879
    Two-Electron Energy =                  89.8506873827425636
    Total Energy =                       -139.0574460938950097

  Dipole Moment: [D]
     X:     0.2560      Y:    -2.0608      Z:    -0.0001     Total:     2.0767

    SAPT Results
  --------------------------------------------------------------------------------------------------------
    Electrostatics                 -0.44231297 [mEh]      -0.27755558 [kcal/mol]      -1.16129253 [kJ/mol]
      Elst10,r                     -0.53861366 [mEh]      -0.33798518 [kcal/mol]      -1.41412998 [kJ/mol]
      Elst12,r                      0.09630070 [mEh]       0.06042960 [kcal/mol]       0.25283745 [kJ/mol]

    Exchange                        0.00036627 [mEh]       0.00022984 [kcal/mol]       0.00096164 [kJ/mol]
      Exch10                        0.00027821 [mEh]       0.00017458 [kcal/mol]       0.00073044 [kJ/mol]
      Exch10(S^2)                   0.00027821 [mEh]       0.00017458 [kcal/mol]       0.00073044 [kJ/mol]
      Exch11(S^2)                  -0.00001897 [mEh]      -0.00001190 [kcal/mol]      -0.00004980 [kJ/mol]
      Exch12(S^2)                   0.00010703 [mEh]       0.00006716 [kcal/mol]       0.00028101 [kJ/mol]

    Induction                      -0.00823002 [mEh]      -0.00516442 [kcal/mol]      -0.02160793 [kJ/mol]
      Ind20,r                      -0.00882299 [mEh]      -0.00553651 [kcal/mol]      -0.02316477 [kJ/mol]
      Ind22                         0.00100462 [mEh]       0.00063041 [kcal/mol]       0.00263762 [kJ/mol]
      Exch-Ind20,r                  0.00003457 [mEh]       0.00002170 [kcal/mol]       0.00009078 [kJ/mol]
      Exch-Ind22                   -0.00000394 [mEh]      -0.00000247 [kcal/mol]      -0.00001034 [kJ/mol]
      delta HF,r (2)               -0.00044228 [mEh]      -0.00027754 [kcal/mol]      -0.00116122 [kJ/mol]

    Dispersion                     -0.08100086 [mEh]      -0.05082881 [kcal/mol]      -0.21266774 [kJ/mol]
      Disp20                       -0.07324078 [mEh]      -0.04595928 [kcal/mol]      -0.19229364 [kJ/mol]
      Disp21                        0.00203294 [mEh]       0.00127569 [kcal/mol]       0.00533748 [kJ/mol]
      Disp22 (SDQ)                  0.00025348 [mEh]       0.00015906 [kcal/mol]       0.00066552 [kJ/mol]
      Disp22 (T)                   -0.00996863 [mEh]      -0.00625541 [kcal/mol]      -0.02617265 [kJ/mol]
      Est. Disp22 (T)              -0.01009352 [mEh]      -0.00633378 [kcal/mol]      -0.02650053 [kJ/mol]
      Exch-Disp20                   0.00004701 [mEh]       0.00002950 [kcal/mol]       0.00012343 [kJ/mol]

  Total HF                         -0.54756616 [mEh]      -0.34360295 [kcal/mol]      -1.43763475 [kJ/mol]
  Total SAPT0                      -0.62075993 [mEh]      -0.38953273 [kcal/mol]      -1.62980496 [kJ/mol]
  Total SAPT2                      -0.52337049 [mEh]      -0.32841994 [kcal/mol]      -1.37410903 [kJ/mol]
  Total SAPT2+                     -0.53117758 [mEh]      -0.33331897 [kcal/mol]      -1.39460655 [kJ/mol]

  Special recipe for scaled SAPT0 (see Manual):
    Electrostatics sSAPT0          -0.53861366 [mEh]      -0.33798518 [kcal/mol]      -1.41412998 [kJ/mol]
    Exchange sSAPT0                 0.00027821 [mEh]       0.00017458 [kcal/mol]       0.00073044 [kJ/mol]
    Induction sSAPT0               -0.00923070 [mEh]      -0.00579235 [kcal/mol]      -0.02423521 [kJ/mol]
    Dispersion sSAPT0              -0.07319377 [mEh]      -0.04592978 [kcal/mol]      -0.19217021 [kJ/mol]
  Total sSAPT0                     -0.62075993 [mEh]      -0.38953273 [kcal/mol]      -1.62980496 [kJ/mol]
  --------------------------------------------------------------------------------------------------------

*** Psi4 exiting successfully. Buy a developer a beer!
