                               Psi4 1.4a2.dev224

  ==> Input File <==

--------------------------------------------------------------------------
#Generated by lconvert.py for sapt job

memory 20 GB

molecule  {
0 1
  F       1.798660   -0.304510    0.000170
  C       1.627340    1.070430    0.000110
  H       0.564780    1.293980    0.000090
  H       2.096650    1.483170   -0.888820
  H       2.096630    1.483250    0.889000
--
0 1
  F      -2.577360    0.153250    0.000230
  C      -2.406170   -1.221710    0.000140
  H      -2.875610   -1.634400   -0.888740
  H      -2.875400   -1.634490    0.889080
  H      -1.343620   -1.445360    0.000000
units angstrom
no_reorient
symmetry c1
}

set {
scf_type DF
basis aug-cc-pvdz
freeze_core True
guess SAD
}
energy('sapt2+')
--------------------------------------------------------------------------

  //              Dimer HF             //
    Molecular point group: c1
  Charge       = 0
  Multiplicity = 1
  Basis Set: AUG-CC-PVDZ
    Blend: AUG-CC-PVDZ
  Basis Set: (AUG-CC-PVDZ AUX)
    Blend: AUG-CC-PVDZ-JKFIT
  @DF-RHF Final Energy:  -278.11657834512954
    Total Energy =                       -278.1165783451294828
  //            Monomer A HF           //
    Molecular point group: c1
  Multiplicity = 1
  Basis Set: AUG-CC-PVDZ
    Blend: AUG-CC-PVDZ
  Basis Set: (AUG-CC-PVDZ AUX)
    Blend: AUG-CC-PVDZ-JKFIT
  @DF-RHF Final Energy:  -139.05752286558644
    Total Energy =                       -139.0575228655864350
  //            Monomer B HF           //
    Molecular point group: c1

    Geometry (in Angstrom), charge = 0, multiplicity = 1:

       Center              X                  Y                   Z               Mass
    ------------   -----------------  -----------------  -----------------  -----------------
      Gh(F)           2.188039887794    -0.228875436058     0.000005192307    18.998403162730
      Gh(C)           2.016719887794     1.146064563942    -0.000054807693    12.000000000000
      Gh(H)           0.954159887794     1.369614563942    -0.000074807693     1.007825032230
      Gh(H)           2.486029887794     1.558804563942    -0.888984807693     1.007825032230
      Gh(H)           2.486009887794     1.558884563942     0.888835192307     1.007825032230
         F           -2.187980112206     0.228884563942     0.000065192307    18.998403162730
         C           -2.016790112206    -1.146075436058    -0.000024807693    12.000000000000
         H           -2.486230112206    -1.558765436058    -0.888904807693     1.007825032230
         H           -2.486020112206    -1.558855436058     0.888915192307     1.007825032230
         H           -0.954240112206    -1.369725436058    -0.000164807693     1.007825032230

  Charge       = 0
  Multiplicity = 1
  Basis Set: AUG-CC-PVDZ
    Blend: AUG-CC-PVDZ
  Basis Set: (AUG-CC-PVDZ AUX)
    Blend: AUG-CC-PVDZ-JKFIT

    Orbital Energies [Eh]
    ---------------------

    Doubly Occupied:

       1A    -26.290371     2A    -11.314822     3A     -1.591404
       4A     -0.958264     5A     -0.695640     6A     -0.695268
       7A     -0.674819     8A     -0.531934     9A     -0.531101

  @DF-RHF Final Energy:  -139.05752283047107

   => Energetics <=

    Nuclear Repulsion Energy =             37.3604751740931817
    One-Electron Energy =                -266.2687509202865499
    Two-Electron Energy =                  89.8507529157222962
    Total Energy =                       -139.0575228304710720

  Dipole Moment: [D]
     X:     0.2557      Y:    -2.0614      Z:    -0.0001     Total:     2.0772

    SAPT Results
  --------------------------------------------------------------------------------------------------------
    Electrostatics                 -1.32857989 [mEh]      -0.83369647 [kcal/mol]      -3.48818602 [kJ/mol]
      Elst10,r                     -1.56794659 [mEh]      -0.98390134 [kcal/mol]      -4.11664322 [kJ/mol]
      Elst12,r                      0.23936671 [mEh]       0.15020488 [kcal/mol]       0.62845720 [kJ/mol]

    Exchange                        0.16246422 [mEh]       0.10194783 [kcal/mol]       0.42654974 [kJ/mol]
      Exch10                        0.12609155 [mEh]       0.07912364 [kcal/mol]       0.33105333 [kJ/mol]
      Exch10(S^2)                   0.12608680 [mEh]       0.07912066 [kcal/mol]       0.33104086 [kJ/mol]
      Exch11(S^2)                  -0.00452772 [mEh]      -0.00284119 [kcal/mol]      -0.01188752 [kJ/mol]
      Exch12(S^2)                   0.04090038 [mEh]       0.02566538 [kcal/mol]       0.10738393 [kJ/mol]

    Induction                      -0.08868525 [mEh]      -0.05565084 [kcal/mol]      -0.23284310 [kJ/mol]
      Ind20,r                      -0.09885229 [mEh]      -0.06203075 [kcal/mol]      -0.25953665 [kJ/mol]
      Ind22                         0.00256435 [mEh]       0.00160915 [kcal/mol]       0.00673270 [kJ/mol]
      Exch-Ind20,r                  0.01756160 [mEh]       0.01102007 [kcal/mol]       0.04610798 [kJ/mol]
      Exch-Ind22                   -0.00045557 [mEh]      -0.00028587 [kcal/mol]      -0.00119610 [kJ/mol]
      delta HF,r (2)               -0.00950335 [mEh]      -0.00596344 [kcal/mol]      -0.02495103 [kJ/mol]

    Dispersion                     -0.62224175 [mEh]      -0.39046259 [kcal/mol]      -1.63369550 [kJ/mol]
      Disp20                       -0.55437180 [mEh]      -0.34787355 [kcal/mol]      -1.45550295 [kJ/mol]
      Disp21                        0.00359011 [mEh]       0.00225283 [kcal/mol]       0.00942583 [kJ/mol]
      Disp22 (SDQ)                 -0.00681195 [mEh]      -0.00427456 [kcal/mol]      -0.01788476 [kJ/mol]
      Disp22 (T)                   -0.07295427 [mEh]      -0.04577949 [kcal/mol]      -0.19154140 [kJ/mol]
      Est. Disp22 (T)              -0.07733721 [mEh]      -0.04852983 [kcal/mol]      -0.20304883 [kJ/mol]
      Exch-Disp20                   0.01268909 [mEh]       0.00796253 [kcal/mol]       0.03331521 [kJ/mol]

  Total HF                         -1.53264907 [mEh]      -0.96175181 [kcal/mol]      -4.02396958 [kJ/mol]
  Total SAPT0                      -2.07433178 [mEh]      -1.30166284 [kcal/mol]      -5.44615733 [kJ/mol]
  Total SAPT2                      -1.79648363 [mEh]      -1.12731050 [kcal/mol]      -4.71666712 [kJ/mol]
  Total SAPT2+                     -1.87704268 [mEh]      -1.17786206 [kcal/mol]      -4.92817487 [kJ/mol]

  Special recipe for scaled SAPT0 (see Manual):
    Electrostatics sSAPT0          -1.56794659 [mEh]      -0.98390134 [kcal/mol]      -4.11664322 [kJ/mol]
    Exchange sSAPT0                 0.12609155 [mEh]       0.07912364 [kcal/mol]       0.33105333 [kJ/mol]
    Induction sSAPT0               -0.09079205 [mEh]      -0.05697287 [kcal/mol]      -0.23837449 [kJ/mol]
    Dispersion sSAPT0              -0.54168127 [mEh]      -0.33991013 [kcal/mol]      -1.42218398 [kJ/mol]
  Total sSAPT0                     -2.07432836 [mEh]      -1.30166070 [kcal/mol]      -5.44614835 [kJ/mol]
  --------------------------------------------------------------------------------------------------------

*** Psi4 exiting successfully. Buy a developer a beer!
