                               Psi4 1.4a2.dev224

  ==> Input File <==

--------------------------------------------------------------------------
#Generated by lconvert.py for sapt job

memory 20 GB

molecule  {
0 1
  F       1.798660   -0.304510    0.000170
  C       1.627340    1.070430    0.000110
  H       0.564780    1.293980    0.000090
  H       2.096650    1.483170   -0.888820
  H       2.096630    1.483250    0.889000
--
0 1
  F      -3.361240    0.000990    0.000230
  C      -3.190050   -1.373970    0.000150
  H      -3.659490   -1.786660   -0.888730
  H      -3.659280   -1.786750    0.889090
  H      -2.127500   -1.597630    0.000010
units angstrom
no_reorient
symmetry c1
}

set {
scf_type DF
basis aug-cc-pvdz
freeze_core True
guess SAD
}
energy('sapt2+')
--------------------------------------------------------------------------

  //              Dimer HF             //
    Molecular point group: c1
  Charge       = 0
  Multiplicity = 1
  Basis Set: AUG-CC-PVDZ
    Blend: AUG-CC-PVDZ
  Basis Set: (AUG-CC-PVDZ AUX)
    Blend: AUG-CC-PVDZ-JKFIT
  @DF-RHF Final Energy:  -278.11582963152040
    Total Energy =                       -278.1158296315203984
  //            Monomer A HF           //
    Molecular point group: c1
  Multiplicity = 1
  Basis Set: AUG-CC-PVDZ
    Blend: AUG-CC-PVDZ
  Basis Set: (AUG-CC-PVDZ AUX)
    Blend: AUG-CC-PVDZ-JKFIT
  @DF-RHF Final Energy:  -139.05747165597751
    Total Energy =                       -139.0574716559775084
  //            Monomer B HF           //
    Molecular point group: c1

    Geometry (in Angstrom), charge = 0, multiplicity = 1:

       Center              X                  Y                   Z               Mass
    ------------   -----------------  -----------------  -----------------  -----------------
      Gh(F)           2.579979887794    -0.152745287944     0.000002984393    18.998403162730
      Gh(C)           2.408659887794     1.222194712056    -0.000057015607    12.000000000000
      Gh(H)           1.346099887794     1.445744712056    -0.000077015607     1.007825032230
      Gh(H)           2.877969887794     1.634934712056    -0.888987015607     1.007825032230
      Gh(H)           2.877949887794     1.635014712056     0.888832984393     1.007825032230
         F           -2.579920112206     0.152754712056     0.000062984393    18.998403162730
         C           -2.408730112206    -1.222205287944    -0.000017015607    12.000000000000
         H           -2.878170112206    -1.634895287944    -0.888897015607     1.007825032230
         H           -2.877960112206    -1.634985287944     0.888922984393     1.007825032230
         H           -1.346180112206    -1.445865287944    -0.000157015607     1.007825032230

  Charge       = 0
  Multiplicity = 1
  Basis Set: AUG-CC-PVDZ
    Blend: AUG-CC-PVDZ
  Basis Set: (AUG-CC-PVDZ AUX)
    Blend: AUG-CC-PVDZ-JKFIT

    Orbital Energies [Eh]
    ---------------------

    Doubly Occupied:

       1A    -26.290347     2A    -11.314843     3A     -1.591429
       4A     -0.958267     5A     -0.695652     6A     -0.695285
       7A     -0.674835     8A     -0.531945     9A     -0.531112

  @DF-RHF Final Energy:  -139.05747158805528

   => Energetics <=

    Nuclear Repulsion Energy =             37.3604607462215910
    One-Electron Energy =                -266.2684370523185748
    Two-Electron Energy =                  89.8505047180417193
    Total Energy =                       -139.0574715880552787

  Dipole Moment: [D]
     X:     0.2569      Y:    -2.0615      Z:    -0.0001     Total:     2.0775

    SAPT Results
  --------------------------------------------------------------------------------------------------------
    Electrostatics                 -0.71773873 [mEh]      -0.45038785 [kcal/mol]      -1.88442277 [kJ/mol]
      Elst10,r                     -0.86745633 [mEh]      -0.54433706 [kcal/mol]      -2.27750628 [kJ/mol]
      Elst12,r                      0.14971760 [mEh]       0.09394921 [kcal/mol]       0.39308351 [kJ/mol]

    Exchange                        0.00810249 [mEh]       0.00508439 [kcal/mol]       0.02127308 [kJ/mol]
      Exch10                        0.00605242 [mEh]       0.00379795 [kcal/mol]       0.01589063 [kJ/mol]
      Exch10(S^2)                   0.00605241 [mEh]       0.00379795 [kcal/mol]       0.01589060 [kJ/mol]
      Exch11(S^2)                  -0.00030557 [mEh]      -0.00019175 [kcal/mol]      -0.00080227 [kJ/mol]
      Exch12(S^2)                   0.00235563 [mEh]       0.00147818 [kcal/mol]       0.00618472 [kJ/mol]

    Induction                      -0.02270499 [mEh]      -0.01424760 [kcal/mol]      -0.05961195 [kJ/mol]
      Ind20,r                      -0.02457003 [mEh]      -0.01541792 [kcal/mol]      -0.06450859 [kJ/mol]
      Ind22                         0.00234283 [mEh]       0.00147015 [kcal/mol]       0.00615109 [kJ/mol]
      Exch-Ind20,r                  0.00067369 [mEh]       0.00042275 [kcal/mol]       0.00176877 [kJ/mol]
      Exch-Ind22                   -0.00006424 [mEh]      -0.00004031 [kcal/mol]      -0.00016866 [kJ/mol]
      delta HF,r (2)               -0.00108724 [mEh]      -0.00068226 [kcal/mol]      -0.00285456 [kJ/mol]

    Dispersion                     -0.20374907 [mEh]      -0.12785447 [kcal/mol]      -0.53494311 [kJ/mol]
      Disp20                       -0.18265204 [mEh]      -0.11461588 [kcal/mol]      -0.47955286 [kJ/mol]
      Disp21                        0.00355742 [mEh]       0.00223231 [kcal/mol]       0.00934000 [kJ/mol]
      Disp22 (SDQ)                 -0.00034943 [mEh]      -0.00021927 [kcal/mol]      -0.00091742 [kJ/mol]
      Disp22 (T)                   -0.02428490 [mEh]      -0.01523901 [kcal/mol]      -0.06376001 [kJ/mol]
      Est. Disp22 (T)              -0.02507075 [mEh]      -0.01573213 [kcal/mol]      -0.06582324 [kJ/mol]
      Exch-Disp20                   0.00076573 [mEh]       0.00048050 [kcal/mol]       0.00201041 [kJ/mol]

  Total HF                         -0.88638749 [mEh]      -0.55621655 [kcal/mol]      -2.32721003 [kJ/mol]
  Total SAPT0                      -1.06827380 [mEh]      -0.67035193 [kcal/mol]      -2.80475247 [kJ/mol]
  Total SAPT2                      -0.91422754 [mEh]      -0.57368644 [kcal/mol]      -2.40030408 [kJ/mol]
  Total SAPT2+                     -0.93609030 [mEh]      -0.58740553 [kcal/mol]      -2.45770474 [kJ/mol]

  Special recipe for scaled SAPT0 (see Manual):
    Electrostatics sSAPT0          -0.86745633 [mEh]      -0.54433706 [kcal/mol]      -2.27750628 [kJ/mol]
    Exchange sSAPT0                 0.00605242 [mEh]       0.00379795 [kcal/mol]       0.01589063 [kJ/mol]
    Induction sSAPT0               -0.02498358 [mEh]      -0.01567743 [kcal/mol]      -0.06559438 [kJ/mol]
    Dispersion sSAPT0              -0.18188631 [mEh]      -0.11413538 [kcal/mol]      -0.47754245 [kJ/mol]
  Total sSAPT0                     -1.06827380 [mEh]      -0.67035193 [kcal/mol]      -2.80475247 [kJ/mol]
  --------------------------------------------------------------------------------------------------------

*** Psi4 exiting successfully. Buy a developer a beer!
