                               Psi4 1.4a2.dev224

  ==> Input File <==

--------------------------------------------------------------------------
#Generated by lconvert.py for sapt job

memory 20 GB

molecule  {
0 1
  F      -0.914320    0.000010    0.000000
  C      -2.297350    0.000020    0.000000
  H      -2.651740    1.027060   -0.000000
  H      -2.651750   -0.513490    0.889440
  H      -2.651750   -0.513490   -0.889440
--
0 1
  F       4.524710    0.000020    0.000000
  C       3.141340    0.000020    0.000000
  H       2.783510    1.025420    0.000000
  H       2.783510   -0.512680    0.888020
  H       2.783510   -0.512680   -0.888020
units angstrom
no_reorient
symmetry c1
}

set {
scf_type DF
basis aug-cc-pvdz
freeze_core True
guess SAD
}
energy('sapt2+')
--------------------------------------------------------------------------

  //              Dimer HF             //
    Molecular point group: c1
  Charge       = 0
  Multiplicity = 1
  Basis Set: AUG-CC-PVDZ
    Blend: AUG-CC-PVDZ
  Basis Set: (AUG-CC-PVDZ AUX)
    Blend: AUG-CC-PVDZ-JKFIT
  @DF-RHF Final Energy:  -278.11621509942336
    Total Energy =                       -278.1162150994233571
  //            Monomer A HF           //
    Molecular point group: c1
  Multiplicity = 1
  Basis Set: AUG-CC-PVDZ
    Blend: AUG-CC-PVDZ
  Basis Set: (AUG-CC-PVDZ AUX)
    Blend: AUG-CC-PVDZ-JKFIT
  @DF-RHF Final Energy:  -139.05749041541969
    Total Energy =                       -139.0574904154196929
  //            Monomer B HF           //
    Molecular point group: c1

    Geometry (in Angstrom), charge = 0, multiplicity = 1:

       Center              X                  Y                   Z               Mass
    ------------   -----------------  -----------------  -----------------  -----------------
      Gh(F)          -2.077070441766    -0.000007504142     0.000000000000    18.998403162730
      Gh(C)          -3.460100441766     0.000002495858     0.000000000000    12.000000000000
      Gh(H)          -3.814490441766     1.027042495858     0.000000000000     1.007825032230
      Gh(H)          -3.814500441766    -0.513507504142     0.889440000000     1.007825032230
      Gh(H)          -3.814500441766    -0.513507504142    -0.889440000000     1.007825032230
         F            3.361959558234     0.000002495858     0.000000000000    18.998403162730
         C            1.978589558234     0.000002495858     0.000000000000    12.000000000000
         H            1.620759558234     1.025402495858     0.000000000000     1.007825032230
         H            1.620759558234    -0.512697504142     0.888020000000     1.007825032230
         H            1.620759558234    -0.512697504142    -0.888020000000     1.007825032230

  Charge       = 0
  Multiplicity = 1
  Basis Set: AUG-CC-PVDZ
    Blend: AUG-CC-PVDZ
  Basis Set: (AUG-CC-PVDZ AUX)
    Blend: AUG-CC-PVDZ-JKFIT

    Orbital Energies [Eh]
    ---------------------

    Doubly Occupied:

       1A    -26.291116     2A    -11.314450     3A     -1.592659
       4A     -0.958566     5A     -0.695932     6A     -0.695932
       7A     -0.676535     8A     -0.531183     9A     -0.531183

  @DF-RHF Final Energy:  -139.05754101014304

   => Energetics <=

    Nuclear Repulsion Energy =             37.3916314205038773
    One-Electron Energy =                -266.3232356945791821
    Two-Electron Energy =                  89.8740632639322854
    Total Energy =                       -139.0575410101430407

  Dipole Moment: [D]
     X:    -2.0694      Y:    -0.0000      Z:    -0.0000     Total:     2.0694

    SAPT Results
  --------------------------------------------------------------------------------------------------------
    Electrostatics                 -0.90958188 [mEh]      -0.57077125 [kcal/mol]      -2.38810691 [kJ/mol]
      Elst10,r                     -1.14754023 [mEh]      -0.72009236 [kcal/mol]      -3.01286645 [kJ/mol]
      Elst12,r                      0.23795834 [mEh]       0.14932111 [kcal/mol]       0.62475954 [kJ/mol]

    Exchange                        0.02713486 [mEh]       0.01702738 [kcal/mol]       0.07124255 [kJ/mol]
      Exch10                        0.01991882 [mEh]       0.01249925 [kcal/mol]       0.05229686 [kJ/mol]
      Exch10(S^2)                   0.01991876 [mEh]       0.01249921 [kcal/mol]       0.05229670 [kJ/mol]
      Exch11(S^2)                  -0.00085425 [mEh]      -0.00053605 [kcal/mol]      -0.00224282 [kJ/mol]
      Exch12(S^2)                   0.00807028 [mEh]       0.00506418 [kcal/mol]       0.02118852 [kJ/mol]

    Induction                      -0.04797107 [mEh]      -0.03010230 [kcal/mol]      -0.12594804 [kJ/mol]
      Ind20,r                      -0.05265775 [mEh]      -0.03304323 [kcal/mol]      -0.13825289 [kJ/mol]
      Ind22                         0.00834541 [mEh]       0.00523682 [kcal/mol]       0.02191086 [kJ/mol]
      Exch-Ind20,r                  0.00166594 [mEh]       0.00104539 [kcal/mol]       0.00437393 [kJ/mol]
      Exch-Ind22                   -0.00026403 [mEh]      -0.00016568 [kcal/mol]      -0.00069320 [kJ/mol]
      delta HF,r (2)               -0.00506065 [mEh]      -0.00317561 [kcal/mol]      -0.01328674 [kJ/mol]

    Dispersion                     -0.29812575 [mEh]      -0.18707673 [kcal/mol]      -0.78272906 [kJ/mol]
      Disp20                       -0.26334428 [mEh]      -0.16525103 [kcal/mol]      -0.69141030 [kJ/mol]
      Disp21                        0.00761302 [mEh]       0.00477724 [kcal/mol]       0.01998798 [kJ/mol]
      Disp22 (SDQ)                 -0.00529363 [mEh]      -0.00332181 [kcal/mol]      -0.01389843 [kJ/mol]
      Disp22 (T)                   -0.03777894 [mEh]      -0.02370664 [kcal/mol]      -0.09918860 [kJ/mol]
      Est. Disp22 (T)              -0.03924102 [mEh]      -0.02462411 [kcal/mol]      -0.10302729 [kJ/mol]
      Exch-Disp20                   0.00214016 [mEh]       0.00134297 [kcal/mol]       0.00561900 [kJ/mol]

  Total HF                         -1.18367386 [mEh]      -0.74276656 [kcal/mol]      -3.10773529 [kJ/mol]
  Total SAPT0                      -1.44487797 [mEh]      -0.90667462 [kcal/mol]      -3.79352660 [kJ/mol]
  Total SAPT2                      -1.19162222 [mEh]      -0.74775423 [kcal/mol]      -3.12860370 [kJ/mol]
  Total SAPT2+                     -1.22854385 [mEh]      -0.77092291 [kcal/mol]      -3.22554145 [kJ/mol]

  Special recipe for scaled SAPT0 (see Manual):
    Electrostatics sSAPT0          -1.14754023 [mEh]      -0.72009236 [kcal/mol]      -3.01286645 [kJ/mol]
    Exchange sSAPT0                 0.01991882 [mEh]       0.01249925 [kcal/mol]       0.05229686 [kJ/mol]
    Induction sSAPT0               -0.05605244 [mEh]      -0.03517344 [kcal/mol]      -0.14716566 [kJ/mol]
    Dispersion sSAPT0              -0.26120409 [mEh]      -0.16390804 [kcal/mol]      -0.68579125 [kJ/mol]
  Total sSAPT0                     -1.44487794 [mEh]      -0.90667460 [kcal/mol]      -3.79352651 [kJ/mol]
  --------------------------------------------------------------------------------------------------------

*** Psi4 exiting successfully. Buy a developer a beer!
