                               Psi4 1.4a2.dev224

  ==> Input File <==

--------------------------------------------------------------------------
#Generated by lconvert.py for sapt job

memory 20 GB

molecule  {
0 1
  F      -0.914320    0.000010    0.000000
  C      -2.297350    0.000020    0.000000
  H      -2.651740    1.027060   -0.000000
  H      -2.651750   -0.513490    0.889440
  H      -2.651750   -0.513490   -0.889440
--
0 1
  F       6.506440    0.000020    0.000000
  C       5.123070    0.000020    0.000000
  H       4.765240    1.025420    0.000000
  H       4.765240   -0.512680    0.888020
  H       4.765240   -0.512680   -0.888020
units angstrom
no_reorient
symmetry c1
}

set {
scf_type DF
basis aug-cc-pvdz
freeze_core True
guess SAD
}
energy('sapt2+')
--------------------------------------------------------------------------

  //              Dimer HF             //
    Molecular point group: c1
  Charge       = 0
  Multiplicity = 1
  Basis Set: AUG-CC-PVDZ
    Blend: AUG-CC-PVDZ
  Basis Set: (AUG-CC-PVDZ AUX)
    Blend: AUG-CC-PVDZ-JKFIT
  @DF-RHF Final Energy:  -278.11531154599186
    Total Energy =                       -278.1153115459918581
  //            Monomer A HF           //
    Molecular point group: c1
  Multiplicity = 1
  Basis Set: AUG-CC-PVDZ
    Blend: AUG-CC-PVDZ
  Basis Set: (AUG-CC-PVDZ AUX)
    Blend: AUG-CC-PVDZ-JKFIT
  @DF-RHF Final Energy:  -139.05745066763791
    Total Energy =                       -139.0574506676379087
  //            Monomer B HF           //
    Molecular point group: c1

    Geometry (in Angstrom), charge = 0, multiplicity = 1:

       Center              X                  Y                   Z               Mass
    ------------   -----------------  -----------------  -----------------  -----------------
      Gh(F)          -3.067935441766    -0.000007504142     0.000000000000    18.998403162730
      Gh(C)          -4.450965441766     0.000002495858     0.000000000000    12.000000000000
      Gh(H)          -4.805355441766     1.027042495858     0.000000000000     1.007825032230
      Gh(H)          -4.805365441766    -0.513507504142     0.889440000000     1.007825032230
      Gh(H)          -4.805365441766    -0.513507504142    -0.889440000000     1.007825032230
         F            4.352824558234     0.000002495858     0.000000000000    18.998403162730
         C            2.969454558234     0.000002495858     0.000000000000    12.000000000000
         H            2.611624558234     1.025402495858     0.000000000000     1.007825032230
         H            2.611624558234    -0.512697504142     0.888020000000     1.007825032230
         H            2.611624558234    -0.512697504142    -0.888020000000     1.007825032230

  Charge       = 0
  Multiplicity = 1
  Basis Set: AUG-CC-PVDZ
    Blend: AUG-CC-PVDZ
  Basis Set: (AUG-CC-PVDZ AUX)
    Blend: AUG-CC-PVDZ-JKFIT

    Orbital Energies [Eh]
    ---------------------

    Doubly Occupied:

       1A    -26.291106     2A    -11.314555     3A     -1.592688
       4A     -0.958568     5A     -0.695966     6A     -0.695966
       7A     -0.676532     8A     -0.531203     9A     -0.531203

  @DF-RHF Final Energy:  -139.05739208905979

   => Energetics <=

    Nuclear Repulsion Energy =             37.3916314205038702
    One-Electron Energy =                -266.3224734017851461
    Two-Electron Energy =                  89.8734498922214868
    Total Energy =                       -139.0573920890597890

  Dipole Moment: [D]
     X:    -2.0667      Y:    -0.0000      Z:     0.0000     Total:     2.0667

    SAPT Results
  --------------------------------------------------------------------------------------------------------
    Electrostatics                 -0.36780011 [mEh]      -0.23079805 [kcal/mol]      -0.96565905 [kJ/mol]
      Elst10,r                     -0.46161459 [mEh]      -0.28966753 [kcal/mol]      -1.21196895 [kJ/mol]
      Elst12,r                      0.09381448 [mEh]       0.05886948 [kcal/mol]       0.24630990 [kJ/mol]

    Exchange                       -0.00000275 [mEh]      -0.00000172 [kcal/mol]      -0.00000721 [kJ/mol]
      Exch10                       -0.00000138 [mEh]      -0.00000086 [kcal/mol]      -0.00000362 [kJ/mol]
      Exch10(S^2)                  -0.00000138 [mEh]      -0.00000086 [kcal/mol]      -0.00000362 [kJ/mol]
      Exch11(S^2)                  -0.00000020 [mEh]      -0.00000013 [kcal/mol]      -0.00000053 [kJ/mol]
      Exch12(S^2)                  -0.00000116 [mEh]      -0.00000073 [kcal/mol]      -0.00000306 [kJ/mol]

    Induction                      -0.00607284 [mEh]      -0.00381077 [kcal/mol]      -0.01594424 [kJ/mol]
      Ind20,r                      -0.00684606 [mEh]      -0.00429597 [kcal/mol]      -0.01797433 [kJ/mol]
      Ind22                         0.00110063 [mEh]       0.00069065 [kcal/mol]       0.00288970 [kJ/mol]
      Exch-Ind20,r                  0.00000091 [mEh]       0.00000057 [kcal/mol]       0.00000240 [kJ/mol]
      Exch-Ind22                   -0.00000015 [mEh]      -0.00000009 [kcal/mol]      -0.00000039 [kJ/mol]
      delta HF,r (2)               -0.00032817 [mEh]      -0.00020593 [kcal/mol]      -0.00086162 [kJ/mol]

    Dispersion                     -0.03116980 [mEh]      -0.01955934 [kcal/mol]      -0.08183629 [kJ/mol]
      Disp20                       -0.02751916 [mEh]      -0.01726853 [kcal/mol]      -0.07225154 [kJ/mol]
      Disp21                        0.00099786 [mEh]       0.00062617 [kcal/mol]       0.00261988 [kJ/mol]
      Disp22 (SDQ)                 -0.00038300 [mEh]      -0.00024033 [kcal/mol]      -0.00100556 [kJ/mol]
      Disp22 (T)                   -0.00422957 [mEh]      -0.00265410 [kcal/mol]      -0.01110474 [kJ/mol]
      Est. Disp22 (T)              -0.00426736 [mEh]      -0.00267781 [kcal/mol]      -0.01120395 [kJ/mol]
      Exch-Disp20                   0.00000186 [mEh]       0.00000117 [kcal/mol]       0.00000488 [kJ/mol]

  Total HF                         -0.46878929 [mEh]      -0.29416972 [kcal/mol]      -1.23080612 [kJ/mol]
  Total SAPT0                      -0.49630660 [mEh]      -0.31143709 [kcal/mol]      -1.30305279 [kJ/mol]
  Total SAPT2                      -0.40139300 [mEh]      -0.25187791 [kcal/mol]      -1.05385717 [kJ/mol]
  Total SAPT2+                     -0.40504549 [mEh]      -0.25416988 [kcal/mol]      -1.06344680 [kJ/mol]

  Special recipe for scaled SAPT0 (see Manual):
    Electrostatics sSAPT0          -0.46161459 [mEh]      -0.28966753 [kcal/mol]      -1.21196895 [kJ/mol]
    Exchange sSAPT0                -0.00000138 [mEh]      -0.00000086 [kcal/mol]      -0.00000362 [kJ/mol]
    Induction sSAPT0               -0.00717332 [mEh]      -0.00450133 [kcal/mol]      -0.01883356 [kJ/mol]
    Dispersion sSAPT0              -0.02751730 [mEh]      -0.01726737 [kcal/mol]      -0.07224667 [kJ/mol]
  Total sSAPT0                     -0.49630660 [mEh]      -0.31143709 [kcal/mol]      -1.30305279 [kJ/mol]
  --------------------------------------------------------------------------------------------------------

*** Psi4 exiting successfully. Buy a developer a beer!
