                               Psi4 1.4a2.dev224

  ==> Input File <==

--------------------------------------------------------------------------
#Generated by lconvert.py for sapt job

memory 20 GB

molecule  {
0 1
  F      -0.914320    0.000010    0.000000
  C      -2.297350    0.000020    0.000000
  H      -2.651740    1.027060   -0.000000
  H      -2.651750   -0.513490    0.889440
  H      -2.651750   -0.513490   -0.889440
--
0 1
  F       5.515570    0.000020    0.000000
  C       4.132210    0.000020    0.000000
  H       3.774370    1.025420    0.000000
  H       3.774380   -0.512680    0.888020
  H       3.774380   -0.512680   -0.888020
units angstrom
no_reorient
symmetry c1
}

set {
scf_type DF
basis aug-cc-pvdz
freeze_core True
guess SAD
}
energy('sapt2+')
--------------------------------------------------------------------------

  //              Dimer HF             //
    Molecular point group: c1
  Charge       = 0
  Multiplicity = 1
  Basis Set: AUG-CC-PVDZ
    Blend: AUG-CC-PVDZ
  Basis Set: (AUG-CC-PVDZ AUX)
    Blend: AUG-CC-PVDZ-JKFIT
  @DF-RHF Final Energy:  -278.11558858217450
    Total Energy =                       -278.1155885821744960
  //            Monomer A HF           //
    Molecular point group: c1
  Multiplicity = 1
  Basis Set: AUG-CC-PVDZ
    Blend: AUG-CC-PVDZ
  Basis Set: (AUG-CC-PVDZ AUX)
    Blend: AUG-CC-PVDZ-JKFIT
  @DF-RHF Final Energy:  -139.05746087932135
    Total Energy =                       -139.0574608793213542
  //            Monomer B HF           //
    Molecular point group: c1

    Geometry (in Angstrom), charge = 0, multiplicity = 1:

       Center              X                  Y                   Z               Mass
    ------------   -----------------  -----------------  -----------------  -----------------
      Gh(F)          -2.572502501565    -0.000007504142     0.000000000000    18.998403162730
      Gh(C)          -3.955532501565     0.000002495858     0.000000000000    12.000000000000
      Gh(H)          -4.309922501565     1.027042495858     0.000000000000     1.007825032230
      Gh(H)          -4.309932501565    -0.513507504142     0.889440000000     1.007825032230
      Gh(H)          -4.309932501565    -0.513507504142    -0.889440000000     1.007825032230
         F            3.857387498435     0.000002495858     0.000000000000    18.998403162730
         C            2.474027498435     0.000002495858     0.000000000000    12.000000000000
         H            2.116187498435     1.025402495858     0.000000000000     1.007825032230
         H            2.116197498435    -0.512697504142     0.888020000000     1.007825032230
         H            2.116197498435    -0.512697504142    -0.888020000000     1.007825032230

  Charge       = 0
  Multiplicity = 1
  Basis Set: AUG-CC-PVDZ
    Blend: AUG-CC-PVDZ
  Basis Set: (AUG-CC-PVDZ AUX)
    Blend: AUG-CC-PVDZ-JKFIT

    Orbital Energies [Eh]
    ---------------------

    Doubly Occupied:

       1A    -26.291100     2A    -11.314538     3A     -1.592684
       4A     -0.958568     5A     -0.695961     6A     -0.695961
       7A     -0.676532     8A     -0.531195     9A     -0.531194

  @DF-RHF Final Energy:  -139.05740874322134

   => Energetics <=

    Nuclear Repulsion Energy =             37.3917919733701609
    One-Electron Energy =                -266.3229348938408521
    Two-Electron Energy =                  89.8737341772493465
    Total Energy =                       -139.0574087432213446

  Dipole Moment: [D]
     X:    -2.0672      Y:    -0.0000      Z:    -0.0000     Total:     2.0672

    SAPT Results
  --------------------------------------------------------------------------------------------------------
    Electrostatics                 -0.55727159 [mEh]      -0.34969320 [kcal/mol]      -1.46311637 [kJ/mol]
      Elst10,r                     -0.70191117 [mEh]      -0.44045591 [kcal/mol]      -1.84286753 [kJ/mol]
      Elst12,r                      0.14463958 [mEh]       0.09076271 [kcal/mol]       0.37975116 [kJ/mol]

    Exchange                        0.00040268 [mEh]       0.00025269 [kcal/mol]       0.00105725 [kJ/mol]
      Exch10                        0.00026966 [mEh]       0.00016921 [kcal/mol]       0.00070799 [kJ/mol]
      Exch10(S^2)                   0.00026966 [mEh]       0.00016921 [kcal/mol]       0.00070799 [kJ/mol]
      Exch11(S^2)                  -0.00001729 [mEh]      -0.00001085 [kcal/mol]      -0.00004539 [kJ/mol]
      Exch12(S^2)                   0.00015031 [mEh]       0.00009432 [kcal/mol]       0.00039465 [kJ/mol]

    Induction                      -0.01445806 [mEh]      -0.00907257 [kcal/mol]      -0.03795963 [kJ/mol]
      Ind20,r                      -0.01715075 [mEh]      -0.01076226 [kcal/mol]      -0.04502929 [kJ/mol]
      Ind22                         0.00286710 [mEh]       0.00179914 [kcal/mol]       0.00752758 [kJ/mol]
      Exch-Ind20,r                  0.00004215 [mEh]       0.00002645 [kcal/mol]       0.00011065 [kJ/mol]
      Exch-Ind22                   -0.00000705 [mEh]      -0.00000442 [kcal/mol]      -0.00001850 [kJ/mol]
      delta HF,r (2)               -0.00020951 [mEh]      -0.00013147 [kcal/mol]      -0.00055007 [kJ/mol]

    Dispersion                     -0.08532868 [mEh]      -0.05354455 [kcal/mol]      -0.22403042 [kJ/mol]
      Disp20                       -0.07522358 [mEh]      -0.04720351 [kcal/mol]      -0.19749948 [kJ/mol]
      Disp21                        0.00255447 [mEh]       0.00160295 [kcal/mol]       0.00670676 [kJ/mol]
      Disp22 (SDQ)                 -0.00120068 [mEh]      -0.00075344 [kcal/mol]      -0.00315238 [kJ/mol]
      Disp22 (T)                   -0.01134693 [mEh]      -0.00712031 [kcal/mol]      -0.02979136 [kJ/mol]
      Est. Disp22 (T)              -0.01151190 [mEh]      -0.00722383 [kcal/mol]      -0.03022449 [kJ/mol]
      Exch-Disp20                   0.00005301 [mEh]       0.00003326 [kcal/mol]       0.00013917 [kJ/mol]

  Total HF                         -0.71895963 [mEh]      -0.45115398 [kcal/mol]      -1.88762825 [kJ/mol]
  Total SAPT0                      -0.79413020 [mEh]      -0.49832423 [kcal/mol]      -2.08498856 [kJ/mol]
  Total SAPT2                      -0.64649754 [mEh]      -0.40568333 [kcal/mol]      -1.69737906 [kJ/mol]
  Total SAPT2+                     -0.65665565 [mEh]      -0.41205764 [kcal/mol]      -1.72404916 [kJ/mol]

  Special recipe for scaled SAPT0 (see Manual):
    Electrostatics sSAPT0          -0.70191117 [mEh]      -0.44045591 [kcal/mol]      -1.84286753 [kJ/mol]
    Exchange sSAPT0                 0.00026966 [mEh]       0.00016921 [kcal/mol]       0.00070799 [kJ/mol]
    Induction sSAPT0               -0.01731812 [mEh]      -0.01086728 [kcal/mol]      -0.04546871 [kJ/mol]
    Dispersion sSAPT0              -0.07517057 [mEh]      -0.04717025 [kcal/mol]      -0.19736031 [kJ/mol]
  Total sSAPT0                     -0.79413020 [mEh]      -0.49832423 [kcal/mol]      -2.08498856 [kJ/mol]
  --------------------------------------------------------------------------------------------------------

*** Psi4 exiting successfully. Buy a developer a beer!
