                               Psi4 1.4a2.dev224

  ==> Input File <==

--------------------------------------------------------------------------
#Generated by lconvert.py for sapt job

memory 20 GB

molecule  {
0 1
 Cl      -0.951590   -0.634070    0.000550
  C      -0.802050    1.145010   -0.005550
  H       0.246630    1.395490   -0.109290
  H      -1.376730    1.527610   -0.840160
  H      -1.196870    1.519070    0.931130
--
0 1
  O       3.935190    0.104600    0.027810
  H       4.727070   -0.407720   -0.144400
  H       3.231110   -0.550680    0.030070
units angstrom
no_reorient
symmetry c1
}

set {
scf_type DF
basis aug-cc-pvdz
freeze_core True
guess SAD
}
energy('sapt2+')
--------------------------------------------------------------------------

  //              Dimer HF             //
    Molecular point group: c1
  Charge       = 0
  Multiplicity = 1
  Basis Set: AUG-CC-PVDZ
    Blend: AUG-CC-PVDZ
  Basis Set: (AUG-CC-PVDZ AUX)
    Blend: AUG-CC-PVDZ-JKFIT
  @DF-RHF Final Energy:  -575.16475234066706
    Total Energy =                       -575.1647523406670643
  //            Monomer A HF           //
    Molecular point group: c1
  Multiplicity = 1
  Basis Set: AUG-CC-PVDZ
    Blend: AUG-CC-PVDZ
  Basis Set: (AUG-CC-PVDZ AUX)
    Blend: AUG-CC-PVDZ-JKFIT
  @DF-RHF Final Energy:  -499.12220930556998
    Total Energy =                       -499.1222093055699816
  //            Monomer B HF           //
    Molecular point group: c1

    Geometry (in Angstrom), charge = 0, multiplicity = 1:

       Center              X                  Y                   Z               Mass
    ------------   -----------------  -----------------  -----------------  -----------------
      Gh(CL)         -1.329775265457    -0.586300241675    -0.003328709338    34.968852682000
      Gh(C)          -1.180235265457     1.192779758325    -0.009428709338    12.000000000000
      Gh(H)          -0.131555265457     1.443259758325    -0.113168709338     1.007825032230
      Gh(H)          -1.754915265457     1.575379758325    -0.844038709338     1.007825032230
      Gh(H)          -1.575055265457     1.566839758325     0.927251290662     1.007825032230
         O            3.557004734543     0.152369758325     0.023931290662    15.994914619570
         H            4.348884734543    -0.359950241675    -0.148278709338     1.007825032230
         H            2.852924734543    -0.502910241675     0.026191290662     1.007825032230

  Charge       = 0
  Multiplicity = 1
  Basis Set: AUG-CC-PVDZ
    Blend: AUG-CC-PVDZ
  Basis Set: (AUG-CC-PVDZ AUX)
    Blend: AUG-CC-PVDZ-JKFIT

    Orbital Energies [Eh]
    ---------------------

    Doubly Occupied:

       1A    -20.578012     2A     -1.355495     3A     -0.716506
       4A     -0.586164     5A     -0.509334

  @DF-RHF Final Energy:   -76.04122586599875

   => Energetics <=

    Nuclear Repulsion Energy =              9.1667415021400664
    One-Electron Energy =                -122.9249119230507290
    Two-Electron Energy =                  37.7169445549119047
    Total Energy =                        -76.0412258659987543

  Dipole Moment: [D]
     X:     0.1500      Y:    -1.9851      Z:    -0.2897     Total:     2.0117

    SAPT Results
  --------------------------------------------------------------------------------------------------------
    Electrostatics                 -1.10608995 [mEh]      -0.69408192 [kcal/mol]      -2.90403875 [kJ/mol]
      Elst10,r                     -1.28265354 [mEh]      -0.80487725 [kcal/mol]      -3.36760640 [kJ/mol]
      Elst12,r                      0.17656359 [mEh]       0.11079533 [kcal/mol]       0.46356765 [kJ/mol]

    Exchange                        0.02279437 [mEh]       0.01430369 [kcal/mol]       0.05984662 [kJ/mol]
      Exch10                        0.01749315 [mEh]       0.01097712 [kcal/mol]       0.04592825 [kJ/mol]
      Exch10(S^2)                   0.01749302 [mEh]       0.01097704 [kcal/mol]       0.04592792 [kJ/mol]
      Exch11(S^2)                   0.00007478 [mEh]       0.00004693 [kcal/mol]       0.00019634 [kJ/mol]
      Exch12(S^2)                   0.00522644 [mEh]       0.00327964 [kcal/mol]       0.01372202 [kJ/mol]

    Induction                      -0.05055181 [mEh]      -0.03172174 [kcal/mol]      -0.13272376 [kJ/mol]
      Ind20,r                      -0.05148392 [mEh]      -0.03230665 [kcal/mol]      -0.13517102 [kJ/mol]
      Ind22                         0.00152057 [mEh]       0.00095417 [kcal/mol]       0.00399226 [kJ/mol]
      Exch-Ind20,r                  0.00215596 [mEh]       0.00135288 [kcal/mol]       0.00566047 [kJ/mol]
      Exch-Ind22                   -0.00006368 [mEh]      -0.00003996 [kcal/mol]      -0.00016718 [kJ/mol]
      delta HF,r (2)               -0.00268074 [mEh]      -0.00168219 [kcal/mol]      -0.00703829 [kJ/mol]

    Dispersion                     -0.28344050 [mEh]      -0.17786160 [kcal/mol]      -0.74417292 [kJ/mol]
      Disp20                       -0.27229324 [mEh]      -0.17086659 [kcal/mol]      -0.71490580 [kJ/mol]
      Disp21                        0.02876940 [mEh]       0.01805307 [kcal/mol]       0.07553406 [kJ/mol]
      Disp22 (SDQ)                 -0.00119327 [mEh]      -0.00074879 [kcal/mol]      -0.00313294 [kJ/mol]
      Disp22 (T)                   -0.03930276 [mEh]      -0.02466286 [kcal/mol]      -0.10318939 [kJ/mol]
      Est. Disp22 (T)              -0.04082028 [mEh]      -0.02561512 [kcal/mol]      -0.10717364 [kJ/mol]
      Exch-Disp20                   0.00209690 [mEh]       0.00131582 [kcal/mol]       0.00550540 [kJ/mol]

  Total HF                         -1.31716910 [mEh]      -0.82653609 [kcal/mol]      -3.45822699 [kJ/mol]
  Total SAPT0                      -1.58736544 [mEh]      -0.99608685 [kcal/mol]      -4.16762739 [kJ/mol]
  Total SAPT2                      -1.40404372 [mEh]      -0.88105074 [kcal/mol]      -3.68631629 [kJ/mol]
  Total SAPT2+                     -1.41728788 [mEh]      -0.88936157 [kcal/mol]      -3.72108881 [kJ/mol]

  Special recipe for scaled SAPT0 (see Manual):
    Electrostatics sSAPT0          -1.28265354 [mEh]      -0.80487725 [kcal/mol]      -3.36760640 [kJ/mol]
    Exchange sSAPT0                 0.01749315 [mEh]       0.01097712 [kcal/mol]       0.04592825 [kJ/mol]
    Induction sSAPT0               -0.05200866 [mEh]      -0.03263593 [kcal/mol]      -0.13654872 [kJ/mol]
    Dispersion sSAPT0              -0.27019630 [mEh]      -0.16955074 [kcal/mol]      -0.70940028 [kJ/mol]
  Total sSAPT0                     -1.58736535 [mEh]      -0.99608679 [kcal/mol]      -4.16762715 [kJ/mol]
  --------------------------------------------------------------------------------------------------------

*** Psi4 exiting successfully. Buy a developer a beer!
