                               Psi4 1.4a2.dev224

  ==> Input File <==

--------------------------------------------------------------------------
#Generated by lconvert.py for sapt job

memory 20 GB

molecule  {
0 1
 Cl      -0.951590   -0.634070    0.000550
  C      -0.802050    1.145010   -0.005550
  H       0.246630    1.395490   -0.109290
  H      -1.376730    1.527610   -0.840160
  H      -1.196870    1.519070    0.931130
--
0 1
  O       4.660630    0.123080    0.030750
  H       5.452510   -0.389240   -0.141460
  H       3.956550   -0.532190    0.033000
units angstrom
no_reorient
symmetry c1
}

set {
scf_type DF
basis aug-cc-pvdz
freeze_core True
guess SAD
}
energy('sapt2+')
--------------------------------------------------------------------------

  //              Dimer HF             //
    Molecular point group: c1
  Charge       = 0
  Multiplicity = 1
  Basis Set: AUG-CC-PVDZ
    Blend: AUG-CC-PVDZ
  Basis Set: (AUG-CC-PVDZ AUX)
    Blend: AUG-CC-PVDZ-JKFIT
  @DF-RHF Final Energy:  -575.16417479219865
    Total Energy =                       -575.1641747921987644
  //            Monomer A HF           //
    Molecular point group: c1
  Multiplicity = 1
  Basis Set: AUG-CC-PVDZ
    Blend: AUG-CC-PVDZ
  Basis Set: (AUG-CC-PVDZ AUX)
    Blend: AUG-CC-PVDZ-JKFIT
  @DF-RHF Final Energy:  -499.12218484642045
    Total Energy =                       -499.1221848464204527
  //            Monomer B HF           //
    Molecular point group: c1

    Geometry (in Angstrom), charge = 0, multiplicity = 1:

       Center              X                  Y                   Z               Mass
    ------------   -----------------  -----------------  -----------------  -----------------
      Gh(CL)         -1.521908034685    -0.591194817502    -0.004107220075    34.968852682000
      Gh(C)          -1.372368034685     1.187885182498    -0.010207220075    12.000000000000
      Gh(H)          -0.323688034685     1.438365182498    -0.113947220075     1.007825032230
      Gh(H)          -1.947048034685     1.570485182498    -0.844817220075     1.007825032230
      Gh(H)          -1.767188034685     1.561945182498     0.926472779925     1.007825032230
         O            4.090311965315     0.165955182498     0.026092779925    15.994914619570
         H            4.882191965315    -0.346364817502    -0.146117220075     1.007825032230
         H            3.386231965315    -0.489314817502     0.028342779925     1.007825032230

  Charge       = 0
  Multiplicity = 1
  Basis Set: AUG-CC-PVDZ
    Blend: AUG-CC-PVDZ
  Basis Set: (AUG-CC-PVDZ AUX)
    Blend: AUG-CC-PVDZ-JKFIT

    Orbital Energies [Eh]
    ---------------------

    Doubly Occupied:

       1A    -20.578025     2A     -1.355484     3A     -0.716510
       4A     -0.586173     5A     -0.509340

  @DF-RHF Final Energy:   -76.04119879838150

   => Energetics <=

    Nuclear Repulsion Energy =              9.1667732703746587
    One-Electron Energy =                -122.9248810738152713
    Two-Electron Energy =                  37.7169090050591223
    Total Energy =                        -76.0411987983814868

  Dipole Moment: [D]
     X:     0.1502      Y:    -1.9848      Z:    -0.2893     Total:     2.0114

    SAPT Results
  --------------------------------------------------------------------------------------------------------
    Electrostatics                 -0.66190761 [mEh]      -0.41535330 [kcal/mol]      -1.73783820 [kJ/mol]
      Elst10,r                     -0.77460853 [mEh]      -0.48607419 [kcal/mol]      -2.03373441 [kJ/mol]
      Elst12,r                      0.11270092 [mEh]       0.07072089 [kcal/mol]       0.29589621 [kJ/mol]

    Exchange                        0.00157340 [mEh]       0.00098732 [kcal/mol]       0.00413096 [kJ/mol]
      Exch10                        0.00115905 [mEh]       0.00072731 [kcal/mol]       0.00304308 [kJ/mol]
      Exch10(S^2)                   0.00115905 [mEh]       0.00072731 [kcal/mol]       0.00304308 [kJ/mol]
      Exch11(S^2)                  -0.00000426 [mEh]      -0.00000267 [kcal/mol]      -0.00001119 [kJ/mol]
      Exch12(S^2)                   0.00041861 [mEh]       0.00026268 [kcal/mol]       0.00109907 [kJ/mol]

    Induction                      -0.01670571 [mEh]      -0.01048299 [kcal/mol]      -0.04386083 [kJ/mol]
      Ind20,r                      -0.01772103 [mEh]      -0.01112011 [kcal/mol]      -0.04652655 [kJ/mol]
      Ind22                         0.00099947 [mEh]       0.00062718 [kcal/mol]       0.00262411 [kJ/mol]
      Exch-Ind20,r                  0.00012875 [mEh]       0.00008079 [kcal/mol]       0.00033803 [kJ/mol]
      Exch-Ind22                   -0.00000726 [mEh]      -0.00000456 [kcal/mol]      -0.00001907 [kJ/mol]
      delta HF,r (2)               -0.00010564 [mEh]      -0.00006629 [kcal/mol]      -0.00027735 [kJ/mol]

    Dispersion                     -0.11389357 [mEh]      -0.07146929 [kcal/mol]      -0.29902752 [kJ/mol]
      Disp20                       -0.11062210 [mEh]      -0.06941641 [kcal/mol]      -0.29043828 [kJ/mol]
      Disp21                        0.01336090 [mEh]       0.00838409 [kcal/mol]       0.03507903 [kJ/mol]
      Disp22 (SDQ)                 -0.00012719 [mEh]      -0.00007981 [kcal/mol]      -0.00033394 [kJ/mol]
      Disp22 (T)                   -0.01631116 [mEh]      -0.01023541 [kcal/mol]      -0.04282495 [kJ/mol]
      Est. Disp22 (T)              -0.01667192 [mEh]      -0.01046179 [kcal/mol]      -0.04377211 [kJ/mol]
      Exch-Disp20                   0.00016674 [mEh]       0.00010463 [kcal/mol]       0.00043778 [kJ/mol]

  Total HF                         -0.79114740 [mEh]      -0.49645249 [kcal/mol]      -2.07715720 [kJ/mol]
  Total SAPT0                      -0.90160275 [mEh]      -0.56576427 [kcal/mol]      -2.36715770 [kJ/mol]
  Total SAPT2                      -0.78749528 [mEh]      -0.49416075 [kcal/mol]      -2.06756856 [kJ/mol]
  Total SAPT2+                     -0.79093349 [mEh]      -0.49631826 [kcal/mol]      -2.07659558 [kJ/mol]

  Special recipe for scaled SAPT0 (see Manual):
    Electrostatics sSAPT0          -0.77460853 [mEh]      -0.48607419 [kcal/mol]      -2.03373441 [kJ/mol]
    Exchange sSAPT0                 0.00115905 [mEh]       0.00072731 [kcal/mol]       0.00304308 [kJ/mol]
    Induction sSAPT0               -0.01769792 [mEh]      -0.01110561 [kcal/mol]      -0.04646587 [kJ/mol]
    Dispersion sSAPT0              -0.11045536 [mEh]      -0.06931178 [kcal/mol]      -0.29000050 [kJ/mol]
  Total sSAPT0                     -0.90160275 [mEh]      -0.56576427 [kcal/mol]      -2.36715770 [kJ/mol]
  --------------------------------------------------------------------------------------------------------

*** Psi4 exiting successfully. Buy a developer a beer!
