                               Psi4 1.4a2.dev224

  ==> Input File <==

--------------------------------------------------------------------------
#Generated by lconvert.py for sapt job

memory 20 GB

molecule  {
0 1
 Cl      -0.951590   -0.634070    0.000550
  C      -0.802050    1.145010   -0.005550
  H       0.246630    1.395490   -0.109290
  H      -1.376730    1.527610   -0.840160
  H      -1.196870    1.519070    0.931130
--
0 1
  O       3.209750    0.086110    0.024880
  H       4.001630   -0.426210   -0.147330
  H       2.505680   -0.569160    0.027140
units angstrom
no_reorient
symmetry c1
}

set {
scf_type DF
basis aug-cc-pvdz
freeze_core True
guess SAD
}
energy('sapt2+')
--------------------------------------------------------------------------

  //              Dimer HF             //
    Molecular point group: c1
  Charge       = 0
  Multiplicity = 1
  Basis Set: AUG-CC-PVDZ
    Blend: AUG-CC-PVDZ
  Basis Set: (AUG-CC-PVDZ AUX)
    Blend: AUG-CC-PVDZ-JKFIT
  @DF-RHF Final Energy:  -575.16587307826262
    Total Energy =                       -575.1658730782627345
  //            Monomer A HF           //
    Molecular point group: c1
  Multiplicity = 1
  Basis Set: AUG-CC-PVDZ
    Blend: AUG-CC-PVDZ
  Basis Set: (AUG-CC-PVDZ AUX)
    Blend: AUG-CC-PVDZ-JKFIT
  @DF-RHF Final Energy:  -499.12224789996071
    Total Energy =                       -499.1222478999607119
  //            Monomer B HF           //
    Molecular point group: c1

    Geometry (in Angstrom), charge = 0, multiplicity = 1:

       Center              X                  Y                   Z               Mass
    ------------   -----------------  -----------------  -----------------  -----------------
      Gh(CL)         -1.137642644432    -0.581403313755    -0.002552698898    34.968852682000
      Gh(C)          -0.988102644432     1.197676686245    -0.008652698898    12.000000000000
      Gh(H)           0.060577355568     1.448156686245    -0.112392698898     1.007825032230
      Gh(H)          -1.562782644432     1.580276686245    -0.843262698898     1.007825032230
      Gh(H)          -1.382922644432     1.571736686245     0.928027301102     1.007825032230
         O            3.023697355568     0.138776686245     0.021777301102    15.994914619570
         H            3.815577355568    -0.373543313755    -0.150432698898     1.007825032230
         H            2.319627355568    -0.516493313755     0.024037301102     1.007825032230

  Charge       = 0
  Multiplicity = 1
  Basis Set: AUG-CC-PVDZ
    Blend: AUG-CC-PVDZ
  Basis Set: (AUG-CC-PVDZ AUX)
    Blend: AUG-CC-PVDZ-JKFIT

    Orbital Energies [Eh]
    ---------------------

    Doubly Occupied:

       1A    -20.577967     2A     -1.355520     3A     -0.716495
       4A     -0.586136     5A     -0.509307

  @DF-RHF Final Energy:   -76.04131064507371

   => Energetics <=

    Nuclear Repulsion Energy =              9.1668086810225677
    One-Electron Energy =                -122.9253878275267198
    Two-Electron Energy =                  37.7172685014304321
    Total Energy =                        -76.0413106450737075

  Dipole Moment: [D]
     X:     0.1498      Y:    -1.9853      Z:    -0.2905     Total:     2.0121

    SAPT Results
  --------------------------------------------------------------------------------------------------------
    Electrostatics                 -2.08952238 [mEh]      -1.31119509 [kcal/mol]      -5.48604025 [kJ/mol]
      Elst10,r                     -2.37219574 [mEh]      -1.48857530 [kcal/mol]      -6.22819906 [kJ/mol]
      Elst12,r                      0.28267336 [mEh]       0.17738021 [kcal/mol]       0.74215881 [kJ/mol]

    Exchange                        0.32197530 [mEh]       0.20204255 [kcal/mol]       0.84534603 [kJ/mol]
      Exch10                        0.26092449 [mEh]       0.16373259 [kcal/mol]       0.68505714 [kJ/mol]
      Exch10(S^2)                   0.26089857 [mEh]       0.16371632 [kcal/mol]       0.68498910 [kJ/mol]
      Exch11(S^2)                   0.00237337 [mEh]       0.00148931 [kcal/mol]       0.00623129 [kJ/mol]
      Exch12(S^2)                   0.05867744 [mEh]       0.03682065 [kcal/mol]       0.15405760 [kJ/mol]

    Induction                      -0.20834874 [mEh]      -0.13074081 [kcal/mol]      -0.54701954 [kJ/mol]
      Ind20,r                      -0.21268854 [mEh]      -0.13346407 [kcal/mol]      -0.55841368 [kJ/mol]
      Ind22                        -0.00619756 [mEh]      -0.00388903 [kcal/mol]      -0.01627168 [kJ/mol]
      Exch-Ind20,r                  0.03812018 [mEh]       0.02392078 [kcal/mol]       0.10008453 [kJ/mol]
      Exch-Ind22                    0.00111079 [mEh]       0.00069703 [kcal/mol]       0.00291638 [kJ/mol]
      delta HF,r (2)               -0.02869362 [mEh]      -0.01800552 [kcal/mol]      -0.07533508 [kJ/mol]

    Dispersion                     -0.82895692 [mEh]      -0.52017832 [kcal/mol]      -2.17642609 [kJ/mol]
      Disp20                       -0.79497985 [mEh]      -0.49885739 [kcal/mol]      -2.08721931 [kJ/mol]
      Disp21                        0.06761400 [mEh]       0.04242843 [kcal/mol]       0.17752054 [kJ/mol]
      Disp22 (SDQ)                 -0.00694535 [mEh]      -0.00435828 [kcal/mol]      -0.01823502 [kJ/mol]
      Disp22 (T)                   -0.11204493 [mEh]      -0.07030926 [kcal/mol]      -0.29417392 [kJ/mol]
      Est. Disp22 (T)              -0.11850652 [mEh]      -0.07436397 [kcal/mol]      -0.31113883 [kJ/mol]
      Exch-Disp20                   0.02386080 [mEh]       0.01497288 [kcal/mol]       0.06264653 [kJ/mol]

  Total HF                         -2.31453323 [mEh]      -1.45239153 [kcal/mol]      -6.07680615 [kJ/mol]
  Total SAPT0                      -3.08565228 [mEh]      -1.93627604 [kcal/mol]      -8.10137893 [kJ/mol]
  Total SAPT2                      -2.74701487 [mEh]      -1.72377785 [kcal/mol]      -7.21228654 [kJ/mol]
  Total SAPT2+                     -2.80485274 [mEh]      -1.76007167 [kcal/mol]      -7.36413985 [kJ/mol]

  Special recipe for scaled SAPT0 (see Manual):
    Electrostatics sSAPT0          -2.37219574 [mEh]      -1.48857530 [kcal/mol]      -6.22819906 [kJ/mol]
    Exchange sSAPT0                 0.26092449 [mEh]       0.16373259 [kcal/mol]       0.68505714 [kJ/mol]
    Induction sSAPT0               -0.20325061 [mEh]      -0.12754168 [kcal/mol]      -0.53363440 [kJ/mol]
    Dispersion sSAPT0              -0.77111194 [mEh]      -0.48388005 [kcal/mol]      -2.02455411 [kJ/mol]
  Total sSAPT0                     -3.08563380 [mEh]      -1.93626444 [kcal/mol]      -8.10133043 [kJ/mol]
  --------------------------------------------------------------------------------------------------------

*** Psi4 exiting successfully. Buy a developer a beer!
