                               Psi4 1.4a2.dev224

  ==> Input File <==

--------------------------------------------------------------------------
#Generated by lconvert.py for sapt job

memory 20 GB

molecule  {
0 1
 Cl       2.111710   -0.538820    0.000180
  C       1.762530    1.209210    0.000110
  H       0.687620    1.343580    0.000120
  H       2.201980    1.643830   -0.889660
  H       2.202010    1.643910    0.889830
--
0 1
 Cl      -4.045630    0.537230    0.000200
  C      -3.696720   -1.210850    0.000120
  H      -4.136370   -1.645420   -0.889580
  H      -4.136150   -1.645460    0.889910
  H      -2.621840   -1.345410   -0.000010
units angstrom
no_reorient
symmetry c1
}

set {
scf_type DF
basis aug-cc-pvdz
freeze_core True
guess SAD
}
energy('sapt2+')
--------------------------------------------------------------------------

  //              Dimer HF             //
    Molecular point group: c1
  Charge       = 0
  Multiplicity = 1
  Basis Set: AUG-CC-PVDZ
    Blend: AUG-CC-PVDZ
  Basis Set: (AUG-CC-PVDZ AUX)
    Blend: AUG-CC-PVDZ-JKFIT
  @DF-RHF Final Energy:  -998.24508028412106
    Total Energy =                       -998.2450802841210589
  //            Monomer A HF           //
    Molecular point group: c1
  Multiplicity = 1
  Basis Set: AUG-CC-PVDZ
    Blend: AUG-CC-PVDZ
  Basis Set: (AUG-CC-PVDZ AUX)
    Blend: AUG-CC-PVDZ-JKFIT
  @DF-RHF Final Energy:  -499.12217110372421
    Total Energy =                       -499.1221711037242130
  //            Monomer B HF           //
    Molecular point group: c1

    Geometry (in Angstrom), charge = 0, multiplicity = 1:

       Center              X                  Y                   Z               Mass
    ------------   -----------------  -----------------  -----------------  -----------------
      Gh(CL)          3.078712383971    -0.538016983120     0.000013345055    34.968852682000
      Gh(C)           2.729532383971     1.210013016880    -0.000056654945    12.000000000000
      Gh(H)           1.654622383971     1.344383016880    -0.000046654945     1.007825032230
      Gh(H)           3.168982383971     1.644633016880    -0.889826654945     1.007825032230
      Gh(H)           3.169012383971     1.644713016880     0.889663345055     1.007825032230
         CL          -3.078627616029     0.538033016880     0.000033345055    34.968852682000
         C           -2.729717616029    -1.210046983120    -0.000046654945    12.000000000000
         H           -3.169367616029    -1.644616983120    -0.889746654945     1.007825032230
         H           -3.169147616029    -1.644656983120     0.889743345055     1.007825032230
         H           -1.654837616029    -1.344606983120    -0.000176654945     1.007825032230

  Charge       = 0
  Multiplicity = 1
  Basis Set: AUG-CC-PVDZ
    Blend: AUG-CC-PVDZ
  Basis Set: (AUG-CC-PVDZ AUX)
    Blend: AUG-CC-PVDZ-JKFIT

    Orbital Energies [Eh]
    ---------------------

    Doubly Occupied:

       1A   -104.824153     2A    -11.297978     3A    -10.550434
       4A     -8.018158     5A     -8.014857     6A     -8.014854
       7A     -1.130792     8A     -0.917384     9A     -0.619730
      10A     -0.619211    11A     -0.546668    12A     -0.435912
      13A     -0.435787

  @DF-RHF Final Energy:  -499.12217105228723

   => Energetics <=

    Nuclear Repulsion Energy =             51.4026684837039198
    One-Electron Energy =                -790.1978402477243435
    Two-Electron Energy =                 239.6730007117332093
    Total Energy =                       -499.1221710522872286

  Dipole Moment: [D]
     X:     0.4238      Y:    -2.1393      Z:    -0.0001     Total:     2.1809

    SAPT Results
  --------------------------------------------------------------------------------------------------------
    Electrostatics                 -0.59847309 [mEh]      -0.37554753 [kcal/mol]      -1.57129088 [kJ/mol]
      Elst10,r                     -0.71759200 [mEh]      -0.45029578 [kcal/mol]      -1.88403754 [kJ/mol]
      Elst12,r                      0.11911891 [mEh]       0.07474824 [kcal/mol]       0.31274666 [kJ/mol]

    Exchange                        0.00608812 [mEh]       0.00382035 [kcal/mol]       0.01598436 [kJ/mol]
      Exch10                        0.00485127 [mEh]       0.00304422 [kcal/mol]       0.01273700 [kJ/mol]
      Exch10(S^2)                   0.00485126 [mEh]       0.00304421 [kcal/mol]       0.01273699 [kJ/mol]
      Exch11(S^2)                  -0.00002008 [mEh]      -0.00001260 [kcal/mol]      -0.00005272 [kJ/mol]
      Exch12(S^2)                   0.00125694 [mEh]       0.00078874 [kcal/mol]       0.00330008 [kJ/mol]

    Induction                      -0.02372374 [mEh]      -0.01488687 [kcal/mol]      -0.06228667 [kJ/mol]
      Ind20,r                      -0.02360780 [mEh]      -0.01481412 [kcal/mol]      -0.06198226 [kJ/mol]
      Ind22                         0.00170758 [mEh]       0.00107152 [kcal/mol]       0.00448325 [kJ/mol]
      Exch-Ind20,r                  0.00060755 [mEh]       0.00038125 [kcal/mol]       0.00159513 [kJ/mol]
      Exch-Ind22                   -0.00004395 [mEh]      -0.00002758 [kcal/mol]      -0.00011538 [kJ/mol]
      delta HF,r (2)               -0.00238713 [mEh]      -0.00149795 [kcal/mol]      -0.00626741 [kJ/mol]

    Dispersion                     -0.24012194 [mEh]      -0.15067879 [kcal/mol]      -0.63044006 [kJ/mol]
      Disp20                       -0.25095192 [mEh]      -0.15747471 [kcal/mol]      -0.65887418 [kJ/mol]
      Disp21                        0.04026278 [mEh]       0.02526528 [kcal/mol]       0.10570991 [kJ/mol]
      Disp22 (SDQ)                  0.00315799 [mEh]       0.00198167 [kcal/mol]       0.00829130 [kJ/mol]
      Disp22 (T)                   -0.03265816 [mEh]      -0.02049331 [kcal/mol]      -0.08574399 [kJ/mol]
      Est. Disp22 (T)              -0.03335138 [mEh]      -0.02092830 [kcal/mol]      -0.08756403 [kJ/mol]
      Exch-Disp20                   0.00076059 [mEh]       0.00047728 [kcal/mol]       0.00199693 [kJ/mol]

  Total HF                         -0.73812811 [mEh]      -0.46318238 [kcal/mol]      -1.93795508 [kJ/mol]
  Total SAPT0                      -0.98831944 [mEh]      -0.62017981 [kcal/mol]      -2.59483233 [kJ/mol]
  Total SAPT2                      -0.86630004 [mEh]      -0.54361148 [kcal/mol]      -2.27447044 [kJ/mol]
  Total SAPT2+                     -0.85623065 [mEh]      -0.53729284 [kcal/mol]      -2.24803325 [kJ/mol]

  Special recipe for scaled SAPT0 (see Manual):
    Electrostatics sSAPT0          -0.71759200 [mEh]      -0.45029578 [kcal/mol]      -1.88403754 [kJ/mol]
    Exchange sSAPT0                 0.00485127 [mEh]       0.00304422 [kcal/mol]       0.01273700 [kJ/mol]
    Induction sSAPT0               -0.02538738 [mEh]      -0.01593082 [kcal/mol]      -0.06665455 [kJ/mol]
    Dispersion sSAPT0              -0.25019133 [mEh]      -0.15699743 [kcal/mol]      -0.65687725 [kJ/mol]
  Total sSAPT0                     -0.98831944 [mEh]      -0.62017981 [kcal/mol]      -2.59483233 [kJ/mol]
  --------------------------------------------------------------------------------------------------------

*** Psi4 exiting successfully. Buy a developer a beer!
