                               Psi4 1.4a2.dev224

  ==> Input File <==

--------------------------------------------------------------------------
#Generated by lconvert.py for sapt job

memory 20 GB

molecule  {
0 1
 Cl       2.111710   -0.538820    0.000180
  C       1.762530    1.209210    0.000110
  H       0.687620    1.343580    0.000120
  H       2.201980    1.643830   -0.889660
  H       2.202010    1.643910    0.889830
--
0 1
 Cl      -4.985310    0.536420    0.000210
  C      -4.636400   -1.211660    0.000130
  H      -5.076040   -1.646230   -0.889580
  H      -5.075820   -1.646270    0.889920
  H      -3.561510   -1.346220   -0.000010
units angstrom
no_reorient
symmetry c1
}

set {
scf_type DF
basis aug-cc-pvdz
freeze_core True
guess SAD
}
energy('sapt2+')
--------------------------------------------------------------------------

  //              Dimer HF             //
    Molecular point group: c1
  Charge       = 0
  Multiplicity = 1
  Basis Set: AUG-CC-PVDZ
    Blend: AUG-CC-PVDZ
  Basis Set: (AUG-CC-PVDZ AUX)
    Blend: AUG-CC-PVDZ-JKFIT
  @DF-RHF Final Energy:  -998.24474418624482
    Total Energy =                       -998.2447441862448159
  //            Monomer A HF           //
    Molecular point group: c1
  Multiplicity = 1
  Basis Set: AUG-CC-PVDZ
    Blend: AUG-CC-PVDZ
  Basis Set: (AUG-CC-PVDZ AUX)
    Blend: AUG-CC-PVDZ-JKFIT
  @DF-RHF Final Energy:  -499.12215562241113
    Total Energy =                       -499.1221556224111282
  //            Monomer B HF           //
    Molecular point group: c1

    Geometry (in Angstrom), charge = 0, multiplicity = 1:

       Center              X                  Y                   Z               Mass
    ------------   -----------------  -----------------  -----------------  -----------------
      Gh(CL)          3.548552081577    -0.537611983120     0.000008546651    34.968852682000
      Gh(C)           3.199372081577     1.210418016880    -0.000061453349    12.000000000000
      Gh(H)           2.124462081577     1.344788016880    -0.000051453349     1.007825032230
      Gh(H)           3.638822081577     1.645038016880    -0.889831453349     1.007825032230
      Gh(H)           3.638852081577     1.645118016880     0.889658546651     1.007825032230
         CL          -3.548467918423     0.537628016880     0.000038546651    34.968852682000
         C           -3.199557918423    -1.210451983120    -0.000041453349    12.000000000000
         H           -3.639197918423    -1.645021983120    -0.889751453349     1.007825032230
         H           -3.638977918423    -1.645061983120     0.889748546651     1.007825032230
         H           -2.124667918423    -1.345011983120    -0.000181453349     1.007825032230

  Charge       = 0
  Multiplicity = 1
  Basis Set: AUG-CC-PVDZ
    Blend: AUG-CC-PVDZ
  Basis Set: (AUG-CC-PVDZ AUX)
    Blend: AUG-CC-PVDZ-JKFIT

    Orbital Energies [Eh]
    ---------------------

    Doubly Occupied:

       1A   -104.824157     2A    -11.297992     3A    -10.550440
       4A     -8.018164     5A     -8.014862     6A     -8.014859
       7A     -1.130804     8A     -0.917393     9A     -0.619736
      10A     -0.619223    11A     -0.546679    12A     -0.435918
      13A     -0.435797

  @DF-RHF Final Energy:  -499.12215558413465

   => Energetics <=

    Nuclear Repulsion Energy =             51.4026242665719053
    One-Electron Energy =                -790.1975135710401901
    Two-Electron Energy =                 239.6727337203336106
    Total Energy =                       -499.1221555841346458

  Dipole Moment: [D]
     X:     0.4252      Y:    -2.1398      Z:    -0.0001     Total:     2.1816

    SAPT Results
  --------------------------------------------------------------------------------------------------------
    Electrostatics                 -0.35042958 [mEh]      -0.21989788 [kcal/mol]      -0.92005273 [kJ/mol]
      Elst10,r                     -0.42364453 [mEh]      -0.26584095 [kcal/mol]      -1.11227855 [kJ/mol]
      Elst12,r                      0.07321495 [mEh]       0.04594307 [kcal/mol]       0.19222582 [kJ/mol]

    Exchange                        0.00021800 [mEh]       0.00013680 [kcal/mol]       0.00057235 [kJ/mol]
      Exch10                        0.00017800 [mEh]       0.00011170 [kcal/mol]       0.00046735 [kJ/mol]
      Exch10(S^2)                   0.00017800 [mEh]       0.00011170 [kcal/mol]       0.00046735 [kJ/mol]
      Exch11(S^2)                  -0.00000471 [mEh]      -0.00000296 [kcal/mol]      -0.00001237 [kJ/mol]
      Exch12(S^2)                   0.00004470 [mEh]       0.00002805 [kcal/mol]       0.00011737 [kJ/mol]

    Induction                      -0.00876252 [mEh]      -0.00549857 [kcal/mol]      -0.02300600 [kJ/mol]
      Ind20,r                      -0.00815437 [mEh]      -0.00511694 [kcal/mol]      -0.02140929 [kJ/mol]
      Ind22                         0.00075255 [mEh]       0.00047223 [kcal/mol]       0.00197582 [kJ/mol]
      Exch-Ind20,r                  0.00002053 [mEh]       0.00001288 [kcal/mol]       0.00005391 [kJ/mol]
      Exch-Ind22                   -0.00000189 [mEh]      -0.00000119 [kcal/mol]      -0.00000498 [kJ/mol]
      delta HF,r (2)               -0.00137934 [mEh]      -0.00086555 [kcal/mol]      -0.00362146 [kJ/mol]

    Dispersion                     -0.09202538 [mEh]      -0.05774680 [kcal/mol]      -0.24161261 [kJ/mol]
      Disp20                       -0.09793725 [mEh]      -0.06145655 [kcal/mol]      -0.25713421 [kJ/mol]
      Disp21                        0.01758305 [mEh]       0.01103353 [kcal/mol]       0.04616428 [kJ/mol]
      Disp22 (SDQ)                  0.00134460 [mEh]       0.00084375 [kcal/mol]       0.00353024 [kJ/mol]
      Disp22 (T)                   -0.01293974 [mEh]      -0.00811981 [kcal/mol]      -0.03397328 [kJ/mol]
      Est. Disp22 (T)              -0.01304524 [mEh]      -0.00818601 [kcal/mol]      -0.03425029 [kJ/mol]
      Exch-Disp20                   0.00002947 [mEh]       0.00001849 [kcal/mol]       0.00007737 [kJ/mol]

  Total HF                         -0.43297970 [mEh]      -0.27169886 [kcal/mol]      -1.13678804 [kJ/mol]
  Total SAPT0                      -0.53088748 [mEh]      -0.33313692 [kcal/mol]      -1.39384489 [kJ/mol]
  Total SAPT2                      -0.45688188 [mEh]      -0.28669771 [kcal/mol]      -1.19954322 [kJ/mol]
  Total SAPT2+                     -0.45099949 [mEh]      -0.28300645 [kcal/mol]      -1.18409899 [kJ/mol]

  Special recipe for scaled SAPT0 (see Manual):
    Electrostatics sSAPT0          -0.42364453 [mEh]      -0.26584095 [kcal/mol]      -1.11227855 [kJ/mol]
    Exchange sSAPT0                 0.00017800 [mEh]       0.00011170 [kcal/mol]       0.00046735 [kJ/mol]
    Induction sSAPT0               -0.00951318 [mEh]      -0.00596961 [kcal/mol]      -0.02497684 [kJ/mol]
    Dispersion sSAPT0              -0.09790778 [mEh]      -0.06143806 [kcal/mol]      -0.25705684 [kJ/mol]
  Total sSAPT0                     -0.53088748 [mEh]      -0.33313692 [kcal/mol]      -1.39384489 [kJ/mol]
  --------------------------------------------------------------------------------------------------------

*** Psi4 exiting successfully. Buy a developer a beer!
