                               Psi4 1.4a2.dev224

  ==> Input File <==

--------------------------------------------------------------------------
#Generated by lconvert.py for sapt job

memory 20 GB

molecule  {
0 1
 Cl       2.111710   -0.538820    0.000180
  C       1.762530    1.209210    0.000110
  H       0.687620    1.343580    0.000120
  H       2.201980    1.643830   -0.889660
  H       2.202010    1.643910    0.889830
--
0 1
 Cl      -3.105960    0.538040    0.000200
  C      -2.757050   -1.210040    0.000120
  H      -3.196690   -1.644610   -0.889580
  H      -3.196470   -1.644650    0.889910
  H      -1.682160   -1.344600   -0.000010
units angstrom
no_reorient
symmetry c1
}

set {
scf_type DF
basis aug-cc-pvdz
freeze_core True
guess SAD
}
energy('sapt2+')
--------------------------------------------------------------------------

  //              Dimer HF             //
    Molecular point group: c1
  Charge       = 0
  Multiplicity = 1
  Basis Set: AUG-CC-PVDZ
    Blend: AUG-CC-PVDZ
  Basis Set: (AUG-CC-PVDZ AUX)
    Blend: AUG-CC-PVDZ-JKFIT
  @DF-RHF Final Energy:  -998.24578141688630
    Total Energy =                       -998.2457814168863024
  //            Monomer A HF           //
    Molecular point group: c1
  Multiplicity = 1
  Basis Set: AUG-CC-PVDZ
    Blend: AUG-CC-PVDZ
  Basis Set: (AUG-CC-PVDZ AUX)
    Blend: AUG-CC-PVDZ-JKFIT
  @DF-RHF Final Energy:  -499.12221202833086
    Total Energy =                       -499.1222120283308641
  //            Monomer B HF           //
    Molecular point group: c1

    Geometry (in Angstrom), charge = 0, multiplicity = 1:

       Center              X                  Y                   Z               Mass
    ------------   -----------------  -----------------  -----------------  -----------------
      Gh(CL)          2.608877081577    -0.538421983120     0.000013345055    34.968852682000
      Gh(C)           2.259697081577     1.209608016880    -0.000056654945    12.000000000000
      Gh(H)           1.184787081577     1.343978016880    -0.000046654945     1.007825032230
      Gh(H)           2.699147081577     1.644228016880    -0.889826654945     1.007825032230
      Gh(H)           2.699177081577     1.644308016880     0.889663345055     1.007825032230
         CL          -2.608792918423     0.538438016880     0.000033345055    34.968852682000
         C           -2.259882918423    -1.209641983120    -0.000046654945    12.000000000000
         H           -2.699522918423    -1.644211983120    -0.889746654945     1.007825032230
         H           -2.699302918423    -1.644251983120     0.889743345055     1.007825032230
         H           -1.184992918423    -1.344201983120    -0.000176654945     1.007825032230

  Charge       = 0
  Multiplicity = 1
  Basis Set: AUG-CC-PVDZ
    Blend: AUG-CC-PVDZ
  Basis Set: (AUG-CC-PVDZ AUX)
    Blend: AUG-CC-PVDZ-JKFIT

    Orbital Energies [Eh]
    ---------------------

    Doubly Occupied:

       1A   -104.824165     2A    -11.297963     3A    -10.550438
       4A     -8.018162     5A     -8.014865     6A     -8.014861
       7A     -1.130782     8A     -0.917371     9A     -0.619714
      10A     -0.619198    11A     -0.546657    12A     -0.435907
      13A     -0.435782

  @DF-RHF Final Energy:  -499.12221197741309

   => Energetics <=

    Nuclear Repulsion Energy =             51.4026550895585430
    One-Electron Energy =                -790.1980024175668404
    Two-Electron Energy =                 239.6731353505952882
    Total Energy =                       -499.1222119774130306

  Dipole Moment: [D]
     X:     0.4206      Y:    -2.1389      Z:    -0.0001     Total:     2.1799

    SAPT Results
  --------------------------------------------------------------------------------------------------------
    Electrostatics                 -1.18884079 [mEh]      -0.74600886 [kcal/mol]      -3.12130105 [kJ/mol]
      Elst10,r                     -1.39181606 [mEh]      -0.87337776 [kcal/mol]      -3.65421255 [kJ/mol]
      Elst12,r                      0.20297527 [mEh]       0.12736891 [kcal/mol]       0.53291150 [kJ/mol]

    Exchange                        0.16120873 [mEh]       0.10116001 [kcal/mol]       0.42325348 [kJ/mol]
      Exch10                        0.13611502 [mEh]       0.08541346 [kcal/mol]       0.35736993 [kJ/mol]
      Exch10(S^2)                   0.13610916 [mEh]       0.08540979 [kcal/mol]       0.35735454 [kJ/mol]
      Exch11(S^2)                   0.00125174 [mEh]       0.00078548 [kcal/mol]       0.00328645 [kJ/mol]
      Exch12(S^2)                   0.02384198 [mEh]       0.01496107 [kcal/mol]       0.06259710 [kJ/mol]

    Induction                      -0.10075289 [mEh]      -0.06322339 [kcal/mol]      -0.26452667 [kJ/mol]
      Ind20,r                      -0.10111770 [mEh]      -0.06345231 [kcal/mol]      -0.26548448 [kJ/mol]
      Ind22                         0.00113539 [mEh]       0.00071247 [kcal/mol]       0.00298097 [kJ/mol]
      Exch-Ind20,r                  0.01586797 [mEh]       0.00995730 [kcal/mol]       0.04166136 [kJ/mol]
      Exch-Ind22                   -0.00017817 [mEh]      -0.00011180 [kcal/mol]      -0.00046779 [kJ/mol]
      delta HF,r (2)               -0.01646038 [mEh]      -0.01032904 [kcal/mol]      -0.04321672 [kJ/mol]

    Dispersion                     -0.78279237 [mEh]      -0.49120963 [kcal/mol]      -2.05522108 [kJ/mol]
      Disp20                       -0.79926052 [mEh]      -0.50154355 [kcal/mol]      -2.09845821 [kJ/mol]
      Disp21                        0.09951074 [mEh]       0.06244394 [kcal/mol]       0.26126542 [kJ/mol]
      Disp22 (SDQ)                  0.00767270 [mEh]       0.00481469 [kcal/mol]       0.02014466 [kJ/mol]
      Disp22 (T)                   -0.10272603 [mEh]      -0.06446156 [kcal/mol]      -0.26970716 [kJ/mol]
      Est. Disp22 (T)              -0.10675123 [mEh]      -0.06698741 [kcal/mol]      -0.28027531 [kJ/mol]
      Exch-Disp20                   0.01603594 [mEh]       0.01006271 [kcal/mol]       0.04210236 [kJ/mol]

  Total HF                         -1.35741114 [mEh]      -0.85178835 [kcal/mol]      -3.56388246 [kJ/mol]
  Total SAPT0                      -2.14063572 [mEh]      -1.34326920 [kcal/mol]      -5.62023832 [kJ/mol]
  Total SAPT2                      -1.91160952 [mEh]      -1.19955308 [kcal/mol]      -5.01893010 [kJ/mol]
  Total SAPT2+                     -1.91117730 [mEh]      -1.19928186 [kcal/mol]      -5.01779532 [kJ/mol]

  Special recipe for scaled SAPT0 (see Manual):
    Electrostatics sSAPT0          -1.39181606 [mEh]      -0.87337776 [kcal/mol]      -3.65421255 [kJ/mol]
    Exchange sSAPT0                 0.13611502 [mEh]       0.08541346 [kcal/mol]       0.35736993 [kJ/mol]
    Induction sSAPT0               -0.10170805 [mEh]      -0.06382277 [kcal/mol]      -0.26703446 [kJ/mol]
    Dispersion sSAPT0              -0.78322251 [mEh]      -0.49147954 [kcal/mol]      -2.05635041 [kJ/mol]
  Total sSAPT0                     -2.14063160 [mEh]      -1.34326661 [kcal/mol]      -5.62022750 [kJ/mol]
  --------------------------------------------------------------------------------------------------------

*** Psi4 exiting successfully. Buy a developer a beer!
