                               Psi4 1.4a2.dev224

  ==> Input File <==

--------------------------------------------------------------------------
#Generated by lconvert.py for sapt job

memory 20 GB

molecule  {
0 1
 Cl      -1.010160    0.000010    0.000000
  C      -2.790220    0.000020    0.000000
  H      -3.133660    1.027430    0.000000
  H      -3.133670   -0.513670    0.889750
  H      -3.133670   -0.513670   -0.889750
--
0 1
 Cl       7.535450    0.000020    0.000000
  C       5.755520    0.000030    0.000000
  H       5.409350    1.026630    0.000000
  H       5.409350   -0.513280    0.889070
  H       5.409350   -0.513280   -0.889070
units angstrom
no_reorient
symmetry c1
}

set {
scf_type DF
basis aug-cc-pvdz
freeze_core True
guess SAD
}
energy('sapt2+')
--------------------------------------------------------------------------

  //              Dimer HF             //
    Molecular point group: c1
  Charge       = 0
  Multiplicity = 1
  Basis Set: AUG-CC-PVDZ
    Blend: AUG-CC-PVDZ
  Basis Set: (AUG-CC-PVDZ AUX)
    Blend: AUG-CC-PVDZ-JKFIT
  @DF-RHF Final Energy:  -998.24452934478677
    Total Energy =                       -998.2445293447867698
  //            Monomer A HF           //
    Molecular point group: c1
  Multiplicity = 1
  Basis Set: AUG-CC-PVDZ
    Blend: AUG-CC-PVDZ
  Basis Set: (AUG-CC-PVDZ AUX)
    Blend: AUG-CC-PVDZ-JKFIT
  @DF-RHF Final Energy:  -499.12212695557577
    Total Energy =                       -499.1221269555757658
  //            Monomer B HF           //
    Molecular point group: c1

    Geometry (in Angstrom), charge = 0, multiplicity = 1:

       Center              X                  Y                   Z               Mass
    ------------   -----------------  -----------------  -----------------  -----------------
      Gh(CL)         -3.717035120936    -0.000008105954     0.000000000000    34.968852682000
      Gh(C)          -5.497095120936     0.000001894046     0.000000000000    12.000000000000
      Gh(H)          -5.840535120936     1.027411894046     0.000000000000     1.007825032230
      Gh(H)          -5.840545120936    -0.513688105954     0.889750000000     1.007825032230
      Gh(H)          -5.840545120936    -0.513688105954    -0.889750000000     1.007825032230
         CL           4.828574879064     0.000001894046     0.000000000000    34.968852682000
         C            3.048644879064     0.000011894046     0.000000000000    12.000000000000
         H            2.702474879064     1.026611894046     0.000000000000     1.007825032230
         H            2.702474879064    -0.513298105954     0.889070000000     1.007825032230
         H            2.702474879064    -0.513298105954    -0.889070000000     1.007825032230

  Charge       = 0
  Multiplicity = 1
  Basis Set: AUG-CC-PVDZ
    Blend: AUG-CC-PVDZ
  Basis Set: (AUG-CC-PVDZ AUX)
    Blend: AUG-CC-PVDZ-JKFIT

    Orbital Energies [Eh]
    ---------------------

    Doubly Occupied:

       1A   -104.824525     2A    -11.297606     3A    -10.550833
       4A     -8.018564     5A     -8.015250     6A     -8.015250
       7A     -1.131464     8A     -0.917463     9A     -0.618925
      10A     -0.618922    11A     -0.547944    12A     -0.435990
      13A     -0.435989

  @DF-RHF Final Energy:  -499.12210401336068

   => Energetics <=

    Nuclear Repulsion Energy =             51.4404329300498162
    One-Electron Energy =                -790.2676201190838583
    Two-Electron Energy =                 239.7050831756733373
    Total Energy =                       -499.1221040133606834

  Dipole Moment: [D]
     X:    -2.1709      Y:     0.0000      Z:    -0.0000     Total:     2.1709

    SAPT Results
  --------------------------------------------------------------------------------------------------------
    Electrostatics                 -0.23274169 [mEh]      -0.14604761 [kcal/mol]      -0.61106321 [kJ/mol]
      Elst10,r                     -0.29255469 [mEh]      -0.18358084 [kcal/mol]      -0.76810225 [kJ/mol]
      Elst12,r                      0.05981301 [mEh]       0.03753323 [kcal/mol]       0.15703903 [kJ/mol]

    Exchange                       -0.00000195 [mEh]      -0.00000122 [kcal/mol]      -0.00000511 [kJ/mol]
      Exch10                        0.00000497 [mEh]       0.00000312 [kcal/mol]       0.00001304 [kJ/mol]
      Exch10(S^2)                   0.00000497 [mEh]       0.00000312 [kcal/mol]       0.00001304 [kJ/mol]
      Exch11(S^2)                   0.00000046 [mEh]       0.00000029 [kcal/mol]       0.00000120 [kJ/mol]
      Exch12(S^2)                  -0.00000737 [mEh]      -0.00000462 [kcal/mol]      -0.00001935 [kJ/mol]

    Induction                      -0.00503949 [mEh]      -0.00316233 [kcal/mol]      -0.01323117 [kJ/mol]
      Ind20,r                      -0.00566276 [mEh]      -0.00355344 [kcal/mol]      -0.01486758 [kJ/mol]
      Ind22                         0.00079029 [mEh]       0.00049591 [kcal/mol]       0.00207491 [kJ/mol]
      Exch-Ind20,r                  0.00002620 [mEh]       0.00001644 [kcal/mol]       0.00006878 [kJ/mol]
      Exch-Ind22                   -0.00000366 [mEh]      -0.00000229 [kcal/mol]      -0.00000960 [kJ/mol]
      delta HF,r (2)               -0.00018956 [mEh]      -0.00011895 [kcal/mol]      -0.00049768 [kJ/mol]

    Dispersion                     -0.04252217 [mEh]      -0.02668307 [kcal/mol]      -0.11164195 [kJ/mol]
      Disp20                       -0.04428197 [mEh]      -0.02778736 [kcal/mol]      -0.11626230 [kJ/mol]
      Disp21                        0.00722250 [mEh]       0.00453219 [kcal/mol]       0.01896267 [kJ/mol]
      Disp22 (SDQ)                  0.00110526 [mEh]       0.00069356 [kcal/mol]       0.00290185 [kJ/mol]
      Disp22 (T)                   -0.00650770 [mEh]      -0.00408364 [kcal/mol]      -0.01708597 [kJ/mol]
      Est. Disp22 (T)              -0.00657200 [mEh]      -0.00412399 [kcal/mol]      -0.01725479 [kJ/mol]
      Exch-Disp20                   0.00000404 [mEh]       0.00000254 [kcal/mol]       0.00001061 [kJ/mol]

  Total HF                         -0.29837585 [mEh]      -0.18723367 [kcal/mol]      -0.78338569 [kJ/mol]
  Total SAPT0                      -0.34265378 [mEh]      -0.21501849 [kcal/mol]      -0.89963738 [kJ/mol]
  Total SAPT2                      -0.28206105 [mEh]      -0.17699598 [kcal/mol]      -0.74055118 [kJ/mol]
  Total SAPT2+                     -0.28030529 [mEh]      -0.17589423 [kcal/mol]      -0.73594145 [kJ/mol]

  Special recipe for scaled SAPT0 (see Manual):
    Electrostatics sSAPT0          -0.29255469 [mEh]      -0.18358084 [kcal/mol]      -0.76810225 [kJ/mol]
    Exchange sSAPT0                 0.00000497 [mEh]       0.00000312 [kcal/mol]       0.00001304 [kJ/mol]
    Induction sSAPT0               -0.00582612 [mEh]      -0.00365595 [kcal/mol]      -0.01529648 [kJ/mol]
    Dispersion sSAPT0              -0.04427793 [mEh]      -0.02778482 [kcal/mol]      -0.11625169 [kJ/mol]
  Total sSAPT0                     -0.34265378 [mEh]      -0.21501849 [kcal/mol]      -0.89963738 [kJ/mol]
  --------------------------------------------------------------------------------------------------------

*** Psi4 exiting successfully. Buy a developer a beer!
