                               Psi4 1.4a2.dev224

  ==> Input File <==

--------------------------------------------------------------------------
#Generated by lconvert.py for sapt job

memory 20 GB

molecule  {
0 1
 Cl      -1.010160    0.000010    0.000000
  C      -2.790220    0.000020    0.000000
  H      -3.133660    1.027430    0.000000
  H      -3.133670   -0.513670    0.889750
  H      -3.133670   -0.513670   -0.889750
--
0 1
 Cl       5.348320    0.000020    0.000000
  C       3.568390    0.000020    0.000000
  H       3.222210    1.026630    0.000000
  H       3.222210   -0.513280    0.889070
  H       3.222210   -0.513280   -0.889070
units angstrom
no_reorient
symmetry c1
}

set {
scf_type DF
basis aug-cc-pvdz
freeze_core True
guess SAD
}
energy('sapt2+')
--------------------------------------------------------------------------

  //              Dimer HF             //
    Molecular point group: c1
  Charge       = 0
  Multiplicity = 1
  Basis Set: AUG-CC-PVDZ
    Blend: AUG-CC-PVDZ
  Basis Set: (AUG-CC-PVDZ AUX)
    Blend: AUG-CC-PVDZ-JKFIT
  @DF-RHF Final Energy:  -998.24493738818489
    Total Energy =                       -998.2449373881848942
  //            Monomer A HF           //
    Molecular point group: c1
  Multiplicity = 1
  Basis Set: AUG-CC-PVDZ
    Blend: AUG-CC-PVDZ
  Basis Set: (AUG-CC-PVDZ AUX)
    Blend: AUG-CC-PVDZ-JKFIT
  @DF-RHF Final Energy:  -499.12218074235318
    Total Energy =                       -499.1221807423531800
  //            Monomer B HF           //
    Molecular point group: c1

    Geometry (in Angstrom), charge = 0, multiplicity = 1:

       Center              X                  Y                   Z               Mass
    ------------   -----------------  -----------------  -----------------  -----------------
      Gh(CL)         -2.623469818542    -0.000006905770     0.000000000000    34.968852682000
      Gh(C)          -4.403529818542     0.000003094230     0.000000000000    12.000000000000
      Gh(H)          -4.746969818542     1.027413094230     0.000000000000     1.007825032230
      Gh(H)          -4.746979818542    -0.513686905770     0.889750000000     1.007825032230
      Gh(H)          -4.746979818542    -0.513686905770    -0.889750000000     1.007825032230
         CL           3.735010181458     0.000003094230     0.000000000000    34.968852682000
         C            1.955080181458     0.000003094230     0.000000000000    12.000000000000
         H            1.608900181458     1.026613094230     0.000000000000     1.007825032230
         H            1.608900181458    -0.513296905770     0.889070000000     1.007825032230
         H            1.608900181458    -0.513296905770    -0.889070000000     1.007825032230

  Charge       = 0
  Multiplicity = 1
  Basis Set: AUG-CC-PVDZ
    Blend: AUG-CC-PVDZ
  Basis Set: (AUG-CC-PVDZ AUX)
    Blend: AUG-CC-PVDZ-JKFIT

    Orbital Energies [Eh]
    ---------------------

    Doubly Occupied:

       1A   -104.824533     2A    -11.297603     3A    -10.550834
       4A     -8.018570     5A     -8.015253     6A     -8.015253
       7A     -1.131460     8A     -0.917462     9A     -0.618916
      10A     -0.618914    11A     -0.547942    12A     -0.435982
      13A     -0.435981

  @DF-RHF Final Energy:  -499.12212372116227

   => Energetics <=

    Nuclear Repulsion Energy =             51.4403634014898188
    One-Electron Energy =                -790.2675671452948336
    Two-Electron Energy =                 239.7050800226427896
    Total Energy =                       -499.1221237211622679

  Dipole Moment: [D]
     X:    -2.1711      Y:     0.0000      Z:     0.0000     Total:     2.1711

    SAPT Results
  --------------------------------------------------------------------------------------------------------
    Electrostatics                 -0.49027754 [mEh]      -0.30765380 [kcal/mol]      -1.28722351 [kJ/mol]
      Elst10,r                     -0.61909061 [mEh]      -0.38848522 [kcal/mol]      -1.62542216 [kJ/mol]
      Elst12,r                      0.12881306 [mEh]       0.08083142 [kcal/mol]       0.33819865 [kJ/mol]

    Exchange                        0.03072411 [mEh]       0.01927967 [kcal/mol]       0.08066614 [kJ/mol]
      Exch10                        0.02567303 [mEh]       0.01611007 [kcal/mol]       0.06740454 [kJ/mol]
      Exch10(S^2)                   0.02567270 [mEh]       0.01610986 [kcal/mol]       0.06740367 [kJ/mol]
      Exch11(S^2)                   0.00039303 [mEh]       0.00024663 [kcal/mol]       0.00103191 [kJ/mol]
      Exch12(S^2)                   0.00465804 [mEh]       0.00292297 [kcal/mol]       0.01222969 [kJ/mol]

    Induction                      -0.03592621 [mEh]      -0.02254404 [kcal/mol]      -0.09432425 [kJ/mol]
      Ind20,r                      -0.03585639 [mEh]      -0.02250022 [kcal/mol]      -0.09414093 [kJ/mol]
      Ind22                         0.00397710 [mEh]       0.00249567 [kcal/mol]       0.01044189 [kJ/mol]
      Exch-Ind20,r                  0.00357217 [mEh]       0.00224157 [kcal/mol]       0.00937872 [kJ/mol]
      Exch-Ind22                   -0.00039622 [mEh]      -0.00024863 [kcal/mol]      -0.00104027 [kJ/mol]
      delta HF,r (2)               -0.00722288 [mEh]      -0.00453243 [kcal/mol]      -0.01896367 [kJ/mol]

    Dispersion                     -0.40789560 [mEh]      -0.25595835 [kcal/mol]      -1.07092974 [kJ/mol]
      Disp20                       -0.42016857 [mEh]      -0.26365976 [kcal/mol]      -1.10315242 [kJ/mol]
      Disp21                        0.05976555 [mEh]       0.03750345 [kcal/mol]       0.15691443 [kJ/mol]
      Disp22 (SDQ)                  0.00886172 [mEh]       0.00556081 [kcal/mol]       0.02326644 [kJ/mol]
      Disp22 (T)                   -0.05824496 [mEh]      -0.03654927 [kcal/mol]      -0.15292213 [kJ/mol]
      Est. Disp22 (T)              -0.05998699 [mEh]      -0.03764240 [kcal/mol]      -0.15749581 [kJ/mol]
      Exch-Disp20                   0.00363269 [mEh]       0.00227954 [kcal/mol]       0.00953762 [kJ/mol]

  Total HF                         -0.63292467 [mEh]      -0.39716623 [kcal/mol]      -1.66174349 [kJ/mol]
  Total SAPT0                      -1.04946055 [mEh]      -0.65854644 [kcal/mol]      -2.75535829 [kJ/mol]
  Total SAPT2                      -0.91201552 [mEh]      -0.57229838 [kcal/mol]      -2.39449642 [kJ/mol]
  Total SAPT2+                     -0.90337524 [mEh]      -0.56687652 [kcal/mol]      -2.37181136 [kJ/mol]

  Special recipe for scaled SAPT0 (see Manual):
    Electrostatics sSAPT0          -0.61909061 [mEh]      -0.38848522 [kcal/mol]      -1.62542216 [kJ/mol]
    Exchange sSAPT0                 0.02567303 [mEh]       0.01611007 [kcal/mol]       0.06740454 [kJ/mol]
    Induction sSAPT0               -0.03950696 [mEh]      -0.02479099 [kcal/mol]      -0.10372551 [kJ/mol]
    Dispersion sSAPT0              -0.41653574 [mEh]      -0.26138012 [kcal/mol]      -1.09361444 [kJ/mol]
  Total sSAPT0                     -1.04946027 [mEh]      -0.65854626 [kcal/mol]      -2.75535756 [kJ/mol]
  --------------------------------------------------------------------------------------------------------

*** Psi4 exiting successfully. Buy a developer a beer!
