                               Psi4 1.4a2.dev224

  ==> Input File <==

--------------------------------------------------------------------------
#Generated by lconvert.py for sapt job

memory 20 GB

molecule  {
0 1
 Cl      -1.010160    0.000010    0.000000
  C      -2.790220    0.000020    0.000000
  H      -3.133660    1.027430    0.000000
  H      -3.133670   -0.513670    0.889750
  H      -3.133670   -0.513670   -0.889750
--
0 1
 Cl       6.441890    0.000020    0.000000
  C       4.661950    0.000020    0.000000
  H       4.315780    1.026630    0.000000
  H       4.315780   -0.513280    0.889070
  H       4.315780   -0.513280   -0.889070
units angstrom
no_reorient
symmetry c1
}

set {
scf_type DF
basis aug-cc-pvdz
freeze_core True
guess SAD
}
energy('sapt2+')
--------------------------------------------------------------------------

  //              Dimer HF             //
    Molecular point group: c1
  Charge       = 0
  Multiplicity = 1
  Basis Set: AUG-CC-PVDZ
    Blend: AUG-CC-PVDZ
  Basis Set: (AUG-CC-PVDZ AUX)
    Blend: AUG-CC-PVDZ-JKFIT
  @DF-RHF Final Energy:  -998.24468111050192
    Total Energy =                       -998.2446811105019151
  //            Monomer A HF           //
    Molecular point group: c1
  Multiplicity = 1
  Basis Set: AUG-CC-PVDZ
    Blend: AUG-CC-PVDZ
  Basis Set: (AUG-CC-PVDZ AUX)
    Blend: AUG-CC-PVDZ-JKFIT
  @DF-RHF Final Energy:  -499.12214481661397
    Total Energy =                       -499.1221448166139680
  //            Monomer B HF           //
    Molecular point group: c1

    Geometry (in Angstrom), charge = 0, multiplicity = 1:

       Center              X                  Y                   Z               Mass
    ------------   -----------------  -----------------  -----------------  -----------------
      Gh(CL)         -3.170253618358    -0.000006905770     0.000000000000    34.968852682000
      Gh(C)          -4.950313618358     0.000003094230     0.000000000000    12.000000000000
      Gh(H)          -5.293753618358     1.027413094230     0.000000000000     1.007825032230
      Gh(H)          -5.293763618358    -0.513686905770     0.889750000000     1.007825032230
      Gh(H)          -5.293763618358    -0.513686905770    -0.889750000000     1.007825032230
         CL           4.281796381642     0.000003094230     0.000000000000    34.968852682000
         C            2.501856381642     0.000003094230     0.000000000000    12.000000000000
         H            2.155686381642     1.026613094230     0.000000000000     1.007825032230
         H            2.155686381642    -0.513296905770     0.889070000000     1.007825032230
         H            2.155686381642    -0.513296905770    -0.889070000000     1.007825032230

  Charge       = 0
  Multiplicity = 1
  Basis Set: AUG-CC-PVDZ
    Blend: AUG-CC-PVDZ
  Basis Set: (AUG-CC-PVDZ AUX)
    Blend: AUG-CC-PVDZ-JKFIT

    Orbital Energies [Eh]
    ---------------------

    Doubly Occupied:

       1A   -104.824518     2A    -11.297616     3A    -10.550830
       4A     -8.018562     5A     -8.015247     6A     -8.015247
       7A     -1.131463     8A     -0.917464     9A     -0.618924
      10A     -0.618922    11A     -0.547942    12A     -0.435992
      13A     -0.435992

  @DF-RHF Final Energy:  -499.12210811488364

   => Energetics <=

    Nuclear Repulsion Energy =             51.4402189613570826
    One-Electron Energy =                -790.2672109725875771
    Two-Electron Energy =                 239.7048838963468143
    Total Energy =                       -499.1221081148836447

  Dipole Moment: [D]
     X:    -2.1715      Y:     0.0000      Z:     0.0000     Total:     2.1715

    SAPT Results
  --------------------------------------------------------------------------------------------------------
    Electrostatics                 -0.32984943 [mEh]      -0.20698364 [kcal/mol]      -0.86601955 [kJ/mol]
      Elst10,r                     -0.41674170 [mEh]      -0.26150937 [kcal/mol]      -1.09415519 [kJ/mol]
      Elst12,r                      0.08689228 [mEh]       0.05452573 [kcal/mol]       0.22813564 [kJ/mol]

    Exchange                        0.00054257 [mEh]       0.00034047 [kcal/mol]       0.00142451 [kJ/mol]
      Exch10                        0.00043737 [mEh]       0.00027445 [kcal/mol]       0.00114831 [kJ/mol]
      Exch10(S^2)                   0.00043737 [mEh]       0.00027445 [kcal/mol]       0.00114830 [kJ/mol]
      Exch11(S^2)                   0.00000549 [mEh]       0.00000345 [kcal/mol]       0.00001442 [kJ/mol]
      Exch12(S^2)                   0.00009971 [mEh]       0.00006257 [kcal/mol]       0.00026179 [kJ/mol]

    Induction                      -0.01003594 [mEh]      -0.00629765 [kcal/mol]      -0.02634937 [kJ/mol]
      Ind20,r                      -0.01267230 [mEh]      -0.00795199 [kcal/mol]      -0.03327111 [kJ/mol]
      Ind22                         0.00184551 [mEh]       0.00115808 [kcal/mol]       0.00484539 [kJ/mol]
      Exch-Ind20,r                  0.00004661 [mEh]       0.00002925 [kcal/mol]       0.00012238 [kJ/mol]
      Exch-Ind22                   -0.00000679 [mEh]      -0.00000426 [kcal/mol]      -0.00001782 [kJ/mol]
      delta HF,r (2)                0.00075102 [mEh]       0.00047127 [kcal/mol]       0.00197179 [kJ/mol]

    Dispersion                     -0.11565260 [mEh]      -0.07257310 [kcal/mol]      -0.30364586 [kJ/mol]
      Disp20                       -0.11994131 [mEh]      -0.07526431 [kcal/mol]      -0.31490587 [kJ/mol]
      Disp21                        0.01888326 [mEh]       0.01184942 [kcal/mol]       0.04957798 [kJ/mol]
      Disp22 (SDQ)                  0.00286369 [mEh]       0.00179699 [kcal/mol]       0.00751862 [kJ/mol]
      Disp22 (T)                   -0.01732819 [mEh]      -0.01087360 [kcal/mol]      -0.04549514 [kJ/mol]
      Est. Disp22 (T)              -0.01753205 [mEh]      -0.01100153 [kcal/mol]      -0.04603038 [kJ/mol]
      Exch-Disp20                   0.00007381 [mEh]       0.00004632 [kcal/mol]       0.00019379 [kJ/mol]

  Total HF                         -0.42817900 [mEh]      -0.26868638 [kcal/mol]      -1.12418382 [kJ/mol]
  Total SAPT0                      -0.54804651 [mEh]      -0.34390438 [kcal/mol]      -1.43889591 [kJ/mol]
  Total SAPT2                      -0.45921030 [mEh]      -0.28815882 [kcal/mol]      -1.20565649 [kJ/mol]
  Total SAPT2+                     -0.45499540 [mEh]      -0.28551393 [kcal/mol]      -1.19459027 [kJ/mol]

  Special recipe for scaled SAPT0 (see Manual):
    Electrostatics sSAPT0          -0.41674170 [mEh]      -0.26150937 [kcal/mol]      -1.09415519 [kJ/mol]
    Exchange sSAPT0                 0.00043737 [mEh]       0.00027445 [kcal/mol]       0.00114831 [kJ/mol]
    Induction sSAPT0               -0.01187467 [mEh]      -0.00745147 [kcal/mol]      -0.03117694 [kJ/mol]
    Dispersion sSAPT0              -0.11986750 [mEh]      -0.07521799 [kcal/mol]      -0.31471209 [kJ/mol]
  Total sSAPT0                     -0.54804651 [mEh]      -0.34390438 [kcal/mol]      -1.43889591 [kJ/mol]
  --------------------------------------------------------------------------------------------------------

*** Psi4 exiting successfully. Buy a developer a beer!
