                               Psi4 1.4a2.dev224

  ==> Input File <==

--------------------------------------------------------------------------
#Generated by lconvert.py for sapt job

memory 20 GB

molecule  {
0 1
 Br      -0.469370    1.468740   -0.609270
  C      -0.738760   -0.344380   -0.002180
  H       0.222200   -0.733380    0.310190
  H      -1.439710   -0.314630    0.822340
  H      -1.141520   -0.912800   -0.830830
--
0 1
  O       5.538090   -1.221030    0.754070
  H       6.432310   -0.937860    0.953150
  H       5.105190   -0.419990    0.444400
units angstrom
no_reorient
symmetry c1
}

set {
scf_type DF
basis aug-cc-pvdz
freeze_core True
guess SAD
}
energy('sapt2+')
--------------------------------------------------------------------------

  //              Dimer HF             //
    Molecular point group: c1
  Charge       = 0
  Multiplicity = 1
  Basis Set: AUG-CC-PVDZ
    Blend: AUG-CC-PVDZ
  Basis Set: (AUG-CC-PVDZ AUX)
    Blend: AUG-CC-PVDZ-JKFIT
  @DF-RHF Final Energy: -2687.37276645107295
    Total Energy =                      -2687.3727664510729483
  //            Monomer A HF           //
    Molecular point group: c1
  Multiplicity = 1
  Basis Set: AUG-CC-PVDZ
    Blend: AUG-CC-PVDZ
  Basis Set: (AUG-CC-PVDZ AUX)
    Blend: AUG-CC-PVDZ-JKFIT
  @DF-RHF Final Energy: -2611.33111915587597
    Total Energy =                      -2611.3311191558759674
  //            Monomer B HF           //
    Molecular point group: c1

    Geometry (in Angstrom), charge = 0, multiplicity = 1:

       Center              X                  Y                   Z               Mass
    ------------   -----------------  -----------------  -----------------  -----------------
      Gh(BR)         -0.933179251975     0.674625019798    -0.302577954689    78.918337600000
      Gh(C)          -1.202569251975    -1.138494980202     0.304512045311    12.000000000000
      Gh(H)          -0.241609251975    -1.527494980202     0.616882045311     1.007825032230
      Gh(H)          -1.903519251975    -1.108744980202     1.129032045311     1.007825032230
      Gh(H)          -1.605329251975    -1.706914980202    -0.524137954689     1.007825032230
         O            5.074280748025    -2.015144980202     1.060762045311    15.994914619570
         H            5.968500748025    -1.731974980202     1.259842045311     1.007825032230
         H            4.641380748025    -1.214104980202     0.751092045311     1.007825032230

  Charge       = 0
  Multiplicity = 1
  Basis Set: AUG-CC-PVDZ
    Blend: AUG-CC-PVDZ
  Basis Set: (AUG-CC-PVDZ AUX)
    Blend: AUG-CC-PVDZ-JKFIT

    Orbital Energies [Eh]
    ---------------------

    Doubly Occupied:

       1A    -20.578038     2A     -1.355480     3A     -0.716454
       4A     -0.586208     5A     -0.509343

  @DF-RHF Final Energy:   -76.04118722634924

   => Energetics <=

    Nuclear Repulsion Energy =              9.1665778803976661
    One-Electron Energy =                -122.9244813274320904
    Two-Electron Energy =                  37.7167162206851785
    Total Energy =                        -76.0411872263492512

  Dipole Moment: [D]
     X:     0.7850      Y:     1.8423      Z:    -0.1875     Total:     2.0113

    SAPT Results
  --------------------------------------------------------------------------------------------------------
    Electrostatics                 -0.37497922 [mEh]      -0.23530301 [kcal/mol]      -0.98450781 [kJ/mol]
      Elst10,r                     -0.45396694 [mEh]      -0.28486856 [kcal/mol]      -1.19189003 [kJ/mol]
      Elst12,r                      0.07898772 [mEh]       0.04956554 [kcal/mol]       0.20738222 [kJ/mol]

    Exchange                        0.00006912 [mEh]       0.00004337 [kcal/mol]       0.00018146 [kJ/mol]
      Exch10                        0.00005482 [mEh]       0.00003440 [kcal/mol]       0.00014394 [kJ/mol]
      Exch10(S^2)                   0.00005482 [mEh]       0.00003440 [kcal/mol]       0.00014394 [kJ/mol]
      Exch11(S^2)                  -0.00000033 [mEh]      -0.00000021 [kcal/mol]      -0.00000086 [kJ/mol]
      Exch12(S^2)                   0.00001462 [mEh]       0.00000917 [kcal/mol]       0.00003838 [kJ/mol]

    Induction                      -0.00558155 [mEh]      -0.00350248 [kcal/mol]      -0.01465436 [kJ/mol]
      Ind20,r                      -0.00703024 [mEh]      -0.00441154 [kcal/mol]      -0.01845790 [kJ/mol]
      Ind22                         0.00057590 [mEh]       0.00036138 [kcal/mol]       0.00151202 [kJ/mol]
      Exch-Ind20,r                  0.00000874 [mEh]       0.00000548 [kcal/mol]       0.00002294 [kJ/mol]
      Exch-Ind22                   -0.00000072 [mEh]      -0.00000045 [kcal/mol]      -0.00000188 [kJ/mol]
      delta HF,r (2)                0.00086477 [mEh]       0.00054265 [kcal/mol]       0.00227046 [kJ/mol]

    Dispersion                     -0.04961495 [mEh]      -0.03113385 [kcal/mol]      -0.13026404 [kJ/mol]
      Disp20                       -0.04875874 [mEh]      -0.03059657 [kcal/mol]      -0.12801606 [kJ/mol]
      Disp21                        0.00669667 [mEh]       0.00420222 [kcal/mol]       0.01758210 [kJ/mol]
      Disp22 (SDQ)                 -0.00009492 [mEh]      -0.00005956 [kcal/mol]      -0.00024922 [kJ/mol]
      Disp22 (T)                   -0.00740458 [mEh]      -0.00464644 [kcal/mol]      -0.01944072 [kJ/mol]
      Est. Disp22 (T)              -0.00746746 [mEh]      -0.00468590 [kcal/mol]      -0.01960583 [kJ/mol]
      Exch-Disp20                   0.00000951 [mEh]       0.00000597 [kcal/mol]       0.00002496 [kJ/mol]

  Total HF                         -0.46006885 [mEh]      -0.28869756 [kcal/mol]      -1.20791059 [kJ/mol]
  Total SAPT0                      -0.50881808 [mEh]      -0.31928817 [kcal/mol]      -1.33590169 [kJ/mol]
  Total SAPT2                      -0.42924089 [mEh]      -0.26935273 [kcal/mol]      -1.12697180 [kJ/mol]
  Total SAPT2+                     -0.43010661 [mEh]      -0.26989597 [kcal/mol]      -1.12924474 [kJ/mol]

  Special recipe for scaled SAPT0 (see Manual):
    Electrostatics sSAPT0          -0.45396694 [mEh]      -0.28486856 [kcal/mol]      -1.19189003 [kJ/mol]
    Exchange sSAPT0                 0.00005482 [mEh]       0.00003440 [kcal/mol]       0.00014394 [kJ/mol]
    Induction sSAPT0               -0.00615673 [mEh]      -0.00386341 [kcal/mol]      -0.01616450 [kJ/mol]
    Dispersion sSAPT0              -0.04874924 [mEh]      -0.03059061 [kcal/mol]      -0.12799110 [kJ/mol]
  Total sSAPT0                     -0.50881808 [mEh]      -0.31928817 [kcal/mol]      -1.33590169 [kJ/mol]
  --------------------------------------------------------------------------------------------------------

*** Psi4 exiting successfully. Buy a developer a beer!
