                               Psi4 1.4a2.dev224

  ==> Input File <==

--------------------------------------------------------------------------
#Generated by lconvert.py for sapt job

memory 20 GB

molecule  {
0 1
 Br      -0.469370    1.468740   -0.609270
  C      -0.738760   -0.344380   -0.002180
  H       0.222200   -0.733380    0.310190
  H      -1.439710   -0.314630    0.822340
  H      -1.141520   -0.912800   -0.830830
--
0 1
  O       4.577340   -0.852360    0.555240
  H       5.471560   -0.569190    0.754320
  H       4.144440   -0.051320    0.245570
units angstrom
no_reorient
symmetry c1
}

set {
scf_type DF
basis aug-cc-pvdz
freeze_core True
guess SAD
}
energy('sapt2+')
--------------------------------------------------------------------------

  //              Dimer HF             //
    Molecular point group: c1
  Charge       = 0
  Multiplicity = 1
  Basis Set: AUG-CC-PVDZ
    Blend: AUG-CC-PVDZ
  Basis Set: (AUG-CC-PVDZ AUX)
    Blend: AUG-CC-PVDZ-JKFIT
  @DF-RHF Final Energy: -2687.37320206514642
    Total Energy =                      -2687.3732020651464154
  //            Monomer A HF           //
    Molecular point group: c1
  Multiplicity = 1
  Basis Set: AUG-CC-PVDZ
    Blend: AUG-CC-PVDZ
  Basis Set: (AUG-CC-PVDZ AUX)
    Blend: AUG-CC-PVDZ-JKFIT
  @DF-RHF Final Energy: -2611.33113631051629
    Total Energy =                      -2611.3311363105162854
  //            Monomer B HF           //
    Molecular point group: c1

    Geometry (in Angstrom), charge = 0, multiplicity = 1:

       Center              X                  Y                   Z               Mass
    ------------   -----------------  -----------------  -----------------  -----------------
      Gh(BR)         -0.778616656476     0.615314489398    -0.270590777106    78.918337600000
      Gh(C)          -1.048006656476    -1.197805510602     0.336499222894    12.000000000000
      Gh(H)          -0.087046656476    -1.586805510602     0.648869222894     1.007825032230
      Gh(H)          -1.748956656476    -1.168055510602     1.161019222894     1.007825032230
      Gh(H)          -1.450766656476    -1.766225510602    -0.492150777106     1.007825032230
         O            4.268093343524    -1.705785510602     0.893919222894    15.994914619570
         H            5.162313343524    -1.422615510602     1.092999222894     1.007825032230
         H            3.835193343524    -0.904745510602     0.584249222894     1.007825032230

  Charge       = 0
  Multiplicity = 1
  Basis Set: AUG-CC-PVDZ
    Blend: AUG-CC-PVDZ
  Basis Set: (AUG-CC-PVDZ AUX)
    Blend: AUG-CC-PVDZ-JKFIT

    Orbital Energies [Eh]
    ---------------------

    Doubly Occupied:

       1A    -20.578037     2A     -1.355489     3A     -0.716458
       4A     -0.586208     5A     -0.509345

  @DF-RHF Final Energy:   -76.04120180003973

   => Energetics <=

    Nuclear Repulsion Energy =              9.1665778803976661
    One-Electron Energy =                -122.9244848576882561
    Two-Electron Energy =                  37.7167051772508586
    Total Energy =                        -76.0412018000397296

  Dipole Moment: [D]
     X:     0.7849      Y:     1.8430      Z:    -0.1873     Total:     2.0119

    SAPT Results
  --------------------------------------------------------------------------------------------------------
    Electrostatics                 -0.70446769 [mEh]      -0.44206015 [kcal/mol]      -1.84957966 [kJ/mol]
      Elst10,r                     -0.84413117 [mEh]      -0.52970030 [kcal/mol]      -2.21626607 [kJ/mol]
      Elst12,r                      0.13966348 [mEh]       0.08764016 [kcal/mol]       0.36668641 [kJ/mol]

    Exchange                        0.00358513 [mEh]       0.00224971 [kcal/mol]       0.00941277 [kJ/mol]
      Exch10                        0.00269341 [mEh]       0.00169014 [kcal/mol]       0.00707155 [kJ/mol]
      Exch10(S^2)                   0.00269341 [mEh]       0.00169014 [kcal/mol]       0.00707154 [kJ/mol]
      Exch11(S^2)                  -0.00000417 [mEh]      -0.00000262 [kcal/mol]      -0.00001096 [kJ/mol]
      Exch12(S^2)                   0.00089590 [mEh]       0.00056218 [kcal/mol]       0.00235218 [kJ/mol]

    Induction                      -0.02100979 [mEh]      -0.01318384 [kcal/mol]      -0.05516119 [kJ/mol]
      Ind20,r                      -0.02426641 [mEh]      -0.01522740 [kcal/mol]      -0.06371144 [kJ/mol]
      Ind22                         0.00152991 [mEh]       0.00096003 [kcal/mol]       0.00401677 [kJ/mol]
      Exch-Ind20,r                  0.00036258 [mEh]       0.00022752 [kcal/mol]       0.00095194 [kJ/mol]
      Exch-Ind22                   -0.00002286 [mEh]      -0.00001434 [kcal/mol]      -0.00006002 [kJ/mol]
      delta HF,r (2)                0.00138700 [mEh]       0.00087035 [kcal/mol]       0.00364156 [kJ/mol]

    Dispersion                     -0.15043355 [mEh]      -0.09439848 [kcal/mol]      -0.39496323 [kJ/mol]
      Disp20                       -0.14601723 [mEh]      -0.09162719 [kcal/mol]      -0.38336818 [kJ/mol]
      Disp21                        0.01796360 [mEh]       0.01127233 [kcal/mol]       0.04716343 [kJ/mol]
      Disp22 (SDQ)                 -0.00062666 [mEh]      -0.00039323 [kcal/mol]      -0.00164529 [kJ/mol]
      Disp22 (T)                   -0.02163163 [mEh]      -0.01357405 [kcal/mol]      -0.05679384 [kJ/mol]
      Est. Disp22 (T)              -0.02213352 [mEh]      -0.01388899 [kcal/mol]      -0.05811154 [kJ/mol]
      Exch-Disp20                   0.00038025 [mEh]       0.00023861 [kcal/mol]       0.00099836 [kJ/mol]

  Total HF                         -0.86395459 [mEh]      -0.54213969 [kcal/mol]      -2.26831246 [kJ/mol]
  Total SAPT0                      -1.00959157 [mEh]      -0.63352827 [kcal/mol]      -2.65068229 [kJ/mol]
  Total SAPT2                      -0.86752932 [mEh]      -0.54438286 [kcal/mol]      -2.27769791 [kJ/mol]
  Total SAPT2+                     -0.87232589 [mEh]      -0.54739276 [kcal/mol]      -2.29029131 [kJ/mol]

  Special recipe for scaled SAPT0 (see Manual):
    Electrostatics sSAPT0          -0.84413117 [mEh]      -0.52970030 [kcal/mol]      -2.21626607 [kJ/mol]
    Exchange sSAPT0                 0.00269341 [mEh]       0.00169014 [kcal/mol]       0.00707155 [kJ/mol]
    Induction sSAPT0               -0.02251683 [mEh]      -0.01412953 [kcal/mol]      -0.05911794 [kJ/mol]
    Dispersion sSAPT0              -0.14563698 [mEh]      -0.09138858 [kcal/mol]      -0.38236983 [kJ/mol]
  Total sSAPT0                     -1.00959157 [mEh]      -0.63352827 [kcal/mol]      -2.65068229 [kJ/mol]
  --------------------------------------------------------------------------------------------------------

*** Psi4 exiting successfully. Buy a developer a beer!
