                               Psi4 1.4a2.dev224

  ==> Input File <==

--------------------------------------------------------------------------
#Generated by lconvert.py for sapt job

memory 20 GB

molecule  {
0 1
 Br      -0.469370    1.468740   -0.609270
  C      -0.738760   -0.344380   -0.002180
  H       0.222200   -0.733380    0.310190
  H      -1.439710   -0.314630    0.822340
  H      -1.141520   -0.912800   -0.830830
--
0 1
  O       3.616580   -0.483680    0.356400
  H       4.510810   -0.200510    0.555490
  H       3.183690    0.317360    0.046740
units angstrom
no_reorient
symmetry c1
}

set {
scf_type DF
basis aug-cc-pvdz
freeze_core True
guess SAD
}
energy('sapt2+')
--------------------------------------------------------------------------

  //              Dimer HF             //
    Molecular point group: c1
  Charge       = 0
  Multiplicity = 1
  Basis Set: AUG-CC-PVDZ
    Blend: AUG-CC-PVDZ
  Basis Set: (AUG-CC-PVDZ AUX)
    Blend: AUG-CC-PVDZ-JKFIT
  @DF-RHF Final Energy: -2687.37435652594650
    Total Energy =                      -2687.3743565259464958
  //            Monomer A HF           //
    Molecular point group: c1
  Multiplicity = 1
  Basis Set: AUG-CC-PVDZ
    Blend: AUG-CC-PVDZ
  Basis Set: (AUG-CC-PVDZ AUX)
    Blend: AUG-CC-PVDZ-JKFIT
  @DF-RHF Final Energy: -2611.33119095247957
    Total Energy =                      -2611.3311909524795738
  //            Monomer B HF           //
    Molecular point group: c1

    Geometry (in Angstrom), charge = 0, multiplicity = 1:

       Center              X                  Y                   Z               Mass
    ------------   -----------------  -----------------  -----------------  -----------------
      Gh(BR)         -0.624052632253     0.556002350227    -0.238602170798    78.918337600000
      Gh(C)          -0.893442632253    -1.257117649773     0.368487829202    12.000000000000
      Gh(H)           0.067517367747    -1.646117649773     0.680857829202     1.007825032230
      Gh(H)          -1.594392632253    -1.227367649773     1.193007829202     1.007825032230
      Gh(H)          -1.296202632253    -1.825537649773    -0.460162170798     1.007825032230
         O            3.461897367747    -1.396417649773     0.727067829202    15.994914619570
         H            4.356127367747    -1.113247649773     0.926157829202     1.007825032230
         H            3.029007367747    -0.595377649773     0.417407829202     1.007825032230

  Charge       = 0
  Multiplicity = 1
  Basis Set: AUG-CC-PVDZ
    Blend: AUG-CC-PVDZ
  Basis Set: (AUG-CC-PVDZ AUX)
    Blend: AUG-CC-PVDZ-JKFIT

    Orbital Energies [Eh]
    ---------------------

    Doubly Occupied:

       1A    -20.578003     2A     -1.355514     3A     -0.716444
       4A     -0.586180     5A     -0.509322

  @DF-RHF Final Energy:   -76.04127733445755

   => Energetics <=

    Nuclear Repulsion Energy =              9.1665607211305531
    One-Electron Energy =                -122.9247486306213943
    Two-Electron Energy =                  37.7169105750332960
    Total Energy =                        -76.0412773344575470

  Dipole Moment: [D]
     X:     0.7848      Y:     1.8439      Z:    -0.1864     Total:     2.0126

    SAPT Results
  --------------------------------------------------------------------------------------------------------
    Electrostatics                 -1.60604654 [mEh]      -1.00780942 [kcal/mol]      -4.21667461 [kJ/mol]
      Elst10,r                     -1.87568110 [mEh]      -1.17700766 [kcal/mol]      -4.92460005 [kJ/mol]
      Elst12,r                      0.26963456 [mEh]       0.16919824 [kcal/mol]       0.70792544 [kJ/mol]

    Exchange                        0.14998482 [mEh]       0.09411689 [kcal/mol]       0.39378509 [kJ/mol]
      Exch10                        0.11999138 [mEh]       0.07529573 [kcal/mol]       0.31503732 [kJ/mol]
      Exch10(S^2)                   0.11998618 [mEh]       0.07529246 [kcal/mol]       0.31502366 [kJ/mol]
      Exch11(S^2)                   0.00086973 [mEh]       0.00054576 [kcal/mol]       0.00228348 [kJ/mol]
      Exch12(S^2)                   0.02912371 [mEh]       0.01827540 [kcal/mol]       0.07646429 [kJ/mol]

    Induction                      -0.13275514 [mEh]      -0.08330511 [kcal/mol]      -0.34854857 [kJ/mol]
      Ind20,r                      -0.13814265 [mEh]      -0.08668582 [kcal/mol]      -0.36269349 [kJ/mol]
      Ind22                        -0.00023837 [mEh]      -0.00014958 [kcal/mol]      -0.00062583 [kJ/mol]
      Exch-Ind20,r                  0.01884282 [mEh]       0.01182405 [kcal/mol]       0.04947182 [kJ/mol]
      Exch-Ind22                    0.00003251 [mEh]       0.00002040 [kcal/mol]       0.00008536 [kJ/mol]
      delta HF,r (2)               -0.01324946 [mEh]      -0.00831416 [kcal/mol]      -0.03478644 [kJ/mol]

    Dispersion                     -0.60556241 [mEh]      -0.37999615 [kcal/mol]      -1.58990389 [kJ/mol]
      Disp20                       -0.58019206 [mEh]      -0.36407601 [kcal/mol]      -1.52329404 [kJ/mol]
      Disp21                        0.05539626 [mEh]       0.03476168 [kcal/mol]       0.14544285 [kJ/mol]
      Disp22 (SDQ)                 -0.00581426 [mEh]      -0.00364851 [kcal/mol]      -0.01526535 [kJ/mol]
      Disp22 (T)                   -0.08321889 [mEh]      -0.05222064 [kcal/mol]      -0.21849117 [kJ/mol]
      Est. Disp22 (T)              -0.08723761 [mEh]      -0.05474243 [kcal/mol]      -0.22904231 [kJ/mol]
      Exch-Disp20                   0.01228526 [mEh]       0.00770912 [kcal/mol]       0.03225495 [kJ/mol]

  Total HF                         -1.88823901 [mEh]      -1.18488787 [kcal/mol]      -4.95757084 [kJ/mol]
  Total SAPT0                      -2.45614580 [mEh]      -1.54125476 [kcal/mol]      -6.44860992 [kJ/mol]
  Total SAPT2                      -2.15672366 [mEh]      -1.35336453 [kcal/mol]      -5.66247718 [kJ/mol]
  Total SAPT2+                     -2.19437927 [mEh]      -1.37699378 [kcal/mol]      -5.76134198 [kJ/mol]

  Special recipe for scaled SAPT0 (see Manual):
    Electrostatics sSAPT0          -1.87568110 [mEh]      -1.17700766 [kcal/mol]      -4.92460005 [kJ/mol]
    Exchange sSAPT0                 0.11999138 [mEh]       0.07529573 [kcal/mol]       0.31503732 [kJ/mol]
    Induction sSAPT0               -0.13254684 [mEh]      -0.08317440 [kcal/mol]      -0.34800167 [kJ/mol]
    Dispersion sSAPT0              -0.56790520 [mEh]      -0.35636589 [kcal/mol]      -1.49103489 [kJ/mol]
  Total sSAPT0                     -2.45614176 [mEh]      -1.54125222 [kcal/mol]      -6.44859929 [kJ/mol]
  --------------------------------------------------------------------------------------------------------

*** Psi4 exiting successfully. Buy a developer a beer!
