                               Psi4 1.4a2.dev224

  ==> Input File <==

--------------------------------------------------------------------------
#Generated by lconvert.py for sapt job

memory 20 GB

molecule  {
0 1
 Br       2.177490   -0.607410    0.000150
  C       1.823120    1.288190    0.000110
  H       0.749230    1.426570    0.000140
  H       2.269760    1.710430   -0.891300
  H       2.269820    1.710470    0.891480
--
0 1
 Br      -4.284740    0.902650    0.000170
  C      -3.930620   -0.992990    0.000130
  H      -4.377450   -1.415180   -0.891220
  H      -4.377250   -1.415190    0.891570
  H      -2.856750   -1.131540    0.000010
units angstrom
no_reorient
symmetry c1
}

set {
scf_type DF
basis aug-cc-pvdz
freeze_core True
guess SAD
}
energy('sapt2+')
--------------------------------------------------------------------------

  //              Dimer HF             //
    Molecular point group: c1
  Charge       = 0
  Multiplicity = 1
  Basis Set: AUG-CC-PVDZ
    Blend: AUG-CC-PVDZ
  Basis Set: (AUG-CC-PVDZ AUX)
    Blend: AUG-CC-PVDZ-JKFIT
  @DF-RHF Final Energy: -5222.66292342115685
    Total Energy =                      -5222.6629234211568473
  //            Monomer A HF           //
    Molecular point group: c1
  Multiplicity = 1
  Basis Set: AUG-CC-PVDZ
    Blend: AUG-CC-PVDZ
  Basis Set: (AUG-CC-PVDZ AUX)
    Blend: AUG-CC-PVDZ-JKFIT
  @DF-RHF Final Energy: -2611.33112037137289
    Total Energy =                      -2611.3311203713728901
  //            Monomer B HF           //
    Molecular point group: c1

    Geometry (in Angstrom), charge = 0, multiplicity = 1:

       Center              X                  Y                   Z               Mass
    ------------   -----------------  -----------------  -----------------  -----------------
      Gh(BR)          3.231135741373    -0.755026586972    -0.000003388508    78.918337600000
      Gh(C)           2.876765741373     1.140573413028    -0.000043388508    12.000000000000
      Gh(H)           1.802875741373     1.278953413028    -0.000013388508     1.007825032230
      Gh(H)           3.323405741373     1.562813413028    -0.891453388508     1.007825032230
      Gh(H)           3.323465741373     1.562853413028     0.891326611492     1.007825032230
         BR          -3.231094258627     0.755033413028     0.000016611492    78.918337600000
         C           -2.876974258627    -1.140606586972    -0.000023388508    12.000000000000
         H           -3.323804258627    -1.562796586972    -0.891373388508     1.007825032230
         H           -3.323604258627    -1.562806586972     0.891416611492     1.007825032230
         H           -1.803104258627    -1.279156586972    -0.000143388508     1.007825032230

  Charge       = 0
  Multiplicity = 1
  Basis Set: AUG-CC-PVDZ
    Blend: AUG-CC-PVDZ
  Basis Set: (AUG-CC-PVDZ AUX)
    Blend: AUG-CC-PVDZ-JKFIT

    Orbital Energies [Eh]
    ---------------------

    Doubly Occupied:

       1A   -490.092308     2A    -65.226706     3A    -58.584016
       4A    -58.582646     5A    -58.582645     6A    -11.295916
       7A     -9.862554     8A     -7.475056     9A     -7.466780
      10A     -7.466777    11A     -3.076172    12A     -3.072010
      13A     -3.072008    14A     -3.062388    15A     -3.062385
      16A     -1.067862    17A     -0.900059    18A     -0.613955
      19A     -0.613406    20A     -0.509419    21A     -0.402642
      22A     -0.402584

  @DF-RHF Final Energy: -2611.33112030171424

   => Energetics <=

    Nuclear Repulsion Energy =             89.6704635997013924
    One-Electron Energy =               -3813.0225740884602601
    Two-Electron Energy =                1112.0209901870443900
    Total Energy =                      -2611.3311203017146909

  Dipole Moment: [D]
     X:     0.3994      Y:    -2.1529      Z:    -0.0000     Total:     2.1896

    SAPT Results
  --------------------------------------------------------------------------------------------------------
    Electrostatics                 -0.52805122 [mEh]      -0.33135714 [kcal/mol]      -1.38639828 [kJ/mol]
      Elst10,r                     -0.66499662 [mEh]      -0.41729168 [kcal/mol]      -1.74594840 [kJ/mol]
      Elst12,r                      0.13694541 [mEh]       0.08593454 [kcal/mol]       0.35955011 [kJ/mol]

    Exchange                        0.00562338 [mEh]       0.00352872 [kcal/mol]       0.01476417 [kJ/mol]
      Exch10                        0.00460180 [mEh]       0.00288767 [kcal/mol]       0.01208202 [kJ/mol]
      Exch10(S^2)                   0.00460179 [mEh]       0.00288767 [kcal/mol]       0.01208201 [kJ/mol]
      Exch11(S^2)                  -0.00001569 [mEh]      -0.00000985 [kcal/mol]      -0.00004120 [kJ/mol]
      Exch12(S^2)                   0.00103727 [mEh]       0.00065090 [kcal/mol]       0.00272335 [kJ/mol]

    Induction                      -0.01976302 [mEh]      -0.01240148 [kcal/mol]      -0.05188780 [kJ/mol]
      Ind20,r                      -0.02366660 [mEh]      -0.01485102 [kcal/mol]      -0.06213666 [kJ/mol]
      Ind22                         0.00267727 [mEh]       0.00168001 [kcal/mol]       0.00702917 [kJ/mol]
      Exch-Ind20,r                  0.00076945 [mEh]       0.00048284 [kcal/mol]       0.00202020 [kJ/mol]
      Exch-Ind22                   -0.00008704 [mEh]      -0.00005462 [kcal/mol]      -0.00022853 [kJ/mol]
      delta HF,r (2)                0.00054391 [mEh]       0.00034131 [kcal/mol]       0.00142802 [kJ/mol]

    Dispersion                     -0.24473058 [mEh]      -0.15357076 [kcal/mol]      -0.64254006 [kJ/mol]
      Disp20                       -0.26030075 [mEh]      -0.16334118 [kcal/mol]      -0.68341951 [kJ/mol]
      Disp21                        0.04821512 [mEh]       0.03025545 [kcal/mol]       0.12658878 [kJ/mol]
      Disp22 (SDQ)                  0.00134147 [mEh]       0.00084179 [kcal/mol]       0.00352204 [kJ/mol]
      Disp22 (T)                   -0.03412094 [mEh]      -0.02141122 [kcal/mol]      -0.08958453 [kJ/mol]
      Est. Disp22 (T)              -0.03474732 [mEh]      -0.02180427 [kcal/mol]      -0.09122908 [kJ/mol]
      Exch-Disp20                   0.00076089 [mEh]       0.00047747 [kcal/mol]       0.00199772 [kJ/mol]

  Total HF                         -0.68274807 [mEh]      -0.42843088 [kcal/mol]      -1.79255481 [kJ/mol]
  Total SAPT0                      -0.94228792 [mEh]      -0.59129460 [kcal/mol]      -2.47397660 [kJ/mol]
  Total SAPT2                      -0.80173072 [mEh]      -0.50309362 [kcal/mol]      -2.10494371 [kJ/mol]
  Total SAPT2+                     -0.78692145 [mEh]      -0.49380066 [kcal/mol]      -2.06606197 [kJ/mol]

  Special recipe for scaled SAPT0 (see Manual):
    Electrostatics sSAPT0          -0.66499662 [mEh]      -0.41729168 [kcal/mol]      -1.74594840 [kJ/mol]
    Exchange sSAPT0                 0.00460180 [mEh]       0.00288767 [kcal/mol]       0.01208202 [kJ/mol]
    Induction sSAPT0               -0.02235325 [mEh]      -0.01402687 [kcal/mol]      -0.05868844 [kJ/mol]
    Dispersion sSAPT0              -0.25953985 [mEh]      -0.16286372 [kcal/mol]      -0.68142179 [kJ/mol]
  Total sSAPT0                     -0.94228792 [mEh]      -0.59129460 [kcal/mol]      -2.47397660 [kJ/mol]
  --------------------------------------------------------------------------------------------------------

*** Psi4 exiting successfully. Buy a developer a beer!
