                               Psi4 1.4a2.dev224

  ==> Input File <==

--------------------------------------------------------------------------
#Generated by lconvert.py for sapt job

memory 20 GB

molecule  {
0 1
 Br       2.177490   -0.607410    0.000150
  C       1.823120    1.288190    0.000110
  H       0.749230    1.426570    0.000140
  H       2.269760    1.710430   -0.891300
  H       2.269820    1.710470    0.891480
--
0 1
 Br      -3.215550    0.752910    0.000160
  C      -2.861440   -1.142730    0.000120
  H      -3.308270   -1.564930   -0.891220
  H      -3.308070   -1.564930    0.891560
  H      -1.787570   -1.281280    0.000010
units angstrom
no_reorient
symmetry c1
}

set {
scf_type DF
basis aug-cc-pvdz
freeze_core True
guess SAD
}
energy('sapt2+')
--------------------------------------------------------------------------

  //              Dimer HF             //
    Molecular point group: c1
  Charge       = 0
  Multiplicity = 1
  Basis Set: AUG-CC-PVDZ
    Blend: AUG-CC-PVDZ
  Basis Set: (AUG-CC-PVDZ AUX)
    Blend: AUG-CC-PVDZ-JKFIT
  @DF-RHF Final Energy: -5222.66370437913974
    Total Energy =                      -5222.6637043791388351
  //            Monomer A HF           //
    Molecular point group: c1
  Multiplicity = 1
  Basis Set: AUG-CC-PVDZ
    Blend: AUG-CC-PVDZ
  Basis Set: (AUG-CC-PVDZ AUX)
    Blend: AUG-CC-PVDZ-JKFIT
  @DF-RHF Final Energy: -2611.33117444719028
    Total Energy =                      -2611.3311744471902784
  //            Monomer B HF           //
    Molecular point group: c1

    Geometry (in Angstrom), charge = 0, multiplicity = 1:

       Center              X                  Y                   Z               Mass
    ------------   -----------------  -----------------  -----------------  -----------------
      Gh(BR)          2.696541540989    -0.680156533331     0.000001504210    78.918337600000
      Gh(C)           2.342171540989     1.215443466669    -0.000038495790    12.000000000000
      Gh(H)           1.268281540989     1.353823466669    -0.000008495790     1.007825032230
      Gh(H)           2.788811540989     1.637683466669    -0.891448495790     1.007825032230
      Gh(H)           2.788871540989     1.637723466669     0.891331504210     1.007825032230
         BR          -2.696498459011     0.680163466669     0.000011504210    78.918337600000
         C           -2.342388459011    -1.215476533331    -0.000028495790    12.000000000000
         H           -2.789218459011    -1.637676533331    -0.891368495790     1.007825032230
         H           -2.789018459011    -1.637676533331     0.891411504210     1.007825032230
         H           -1.268518459011    -1.354026533331    -0.000138495790     1.007825032230

  Charge       = 0
  Multiplicity = 1
  Basis Set: AUG-CC-PVDZ
    Blend: AUG-CC-PVDZ
  Basis Set: (AUG-CC-PVDZ AUX)
    Blend: AUG-CC-PVDZ-JKFIT

    Orbital Energies [Eh]
    ---------------------

    Doubly Occupied:

       1A   -490.092305     2A    -65.226694     3A    -58.584006
       4A    -58.582635     5A    -58.582632     6A    -11.295905
       7A     -9.862545     8A     -7.475047     9A     -7.466776
      10A     -7.466767    11A     -3.076166    12A     -3.072003
      13A     -3.072001    14A     -3.062396    15A     -3.062379
      16A     -1.067850    17A     -0.900046    18A     -0.613939
      19A     -0.613389    20A     -0.509409    21A     -0.402637
      22A     -0.402580

  @DF-RHF Final Energy: -2611.33117433824737

   => Energetics <=

    Nuclear Repulsion Energy =             89.6705302175879950
    One-Electron Energy =               -3813.0231957876358138
    Two-Electron Energy =                1112.0214912318003826
    Total Energy =                      -2611.3311743382473651

  Dipole Moment: [D]
     X:     0.3948      Y:    -2.1521      Z:    -0.0000     Total:     2.1880

    SAPT Results
  --------------------------------------------------------------------------------------------------------
    Electrostatics                 -1.16024960 [mEh]      -0.72806762 [kcal/mol]      -3.04623491 [kJ/mol]
      Elst10,r                     -1.41066976 [mEh]      -0.88520864 [kcal/mol]      -3.70371294 [kJ/mol]
      Elst12,r                      0.25042016 [mEh]       0.15714102 [kcal/mol]       0.65747803 [kJ/mol]

    Exchange                        0.19564399 [mEh]       0.12276845 [kcal/mol]       0.51366321 [kJ/mol]
      Exch10                        0.16773976 [mEh]       0.10525829 [kcal/mol]       0.44040067 [kJ/mol]
      Exch10(S^2)                   0.16772962 [mEh]       0.10525192 [kcal/mol]       0.44037405 [kJ/mol]
      Exch11(S^2)                   0.00223912 [mEh]       0.00140507 [kcal/mol]       0.00587881 [kJ/mol]
      Exch12(S^2)                   0.02566511 [mEh]       0.01610510 [kcal/mol]       0.06738373 [kJ/mol]

    Induction                      -0.11018226 [mEh]      -0.06914041 [kcal/mol]      -0.28928349 [kJ/mol]
      Ind20,r                      -0.12289671 [mEh]      -0.07711885 [kcal/mol]      -0.32266527 [kJ/mol]
      Ind22                         0.00315747 [mEh]       0.00198134 [kcal/mol]       0.00828993 [kJ/mol]
      Exch-Ind20,r                  0.02631273 [mEh]       0.01651149 [kcal/mol]       0.06908407 [kJ/mol]
      Exch-Ind22                   -0.00067603 [mEh]      -0.00042421 [kcal/mol]      -0.00177491 [kJ/mol]
      delta HF,r (2)               -0.01607972 [mEh]      -0.01009018 [kcal/mol]      -0.04221730 [kJ/mol]

    Dispersion                     -0.88621499 [mEh]      -0.55610830 [kcal/mol]      -2.32675714 [kJ/mol]
      Disp20                       -0.91804325 [mEh]      -0.57608084 [kcal/mol]      -2.41032222 [kJ/mol]
      Disp21                        0.13108129 [mEh]       0.08225475 [kcal/mol]       0.34415389 [kJ/mol]
      Disp22 (SDQ)                  0.00236940 [mEh]       0.00148682 [kcal/mol]       0.00622087 [kJ/mol]
      Disp22 (T)                   -0.11736457 [mEh]      -0.07364738 [kcal/mol]      -0.30814063 [kJ/mol]
      Est. Disp22 (T)              -0.12240877 [mEh]      -0.07681266 [kcal/mol]      -0.32138417 [kJ/mol]
      Exch-Disp20                   0.02078633 [mEh]       0.01304362 [kcal/mol]       0.05457450 [kJ/mol]

  Total HF                         -1.35559370 [mEh]      -0.85064789 [kcal/mol]      -3.55911077 [kJ/mol]
  Total SAPT0                      -2.25285062 [mEh]      -1.41368511 [kcal/mol]      -5.91485850 [kJ/mol]
  Total SAPT2                      -1.97204480 [mEh]      -1.23747679 [kcal/mol]      -5.17760290 [kJ/mol]
  Total SAPT2+                     -1.96100287 [mEh]      -1.23054788 [kcal/mol]      -5.14861232 [kJ/mol]

  Special recipe for scaled SAPT0 (see Manual):
    Electrostatics sSAPT0          -1.41066976 [mEh]      -0.88520864 [kcal/mol]      -3.70371294 [kJ/mol]
    Exchange sSAPT0                 0.16773976 [mEh]       0.10525829 [kcal/mol]       0.44040067 [kJ/mol]
    Induction sSAPT0               -0.11265893 [mEh]      -0.07069454 [kcal/mol]      -0.29578598 [kJ/mol]
    Dispersion sSAPT0              -0.89725315 [mEh]      -0.56303485 [kcal/mol]      -2.35573782 [kJ/mol]
  Total sSAPT0                     -2.25284208 [mEh]      -1.41367975 [kcal/mol]      -5.91483607 [kJ/mol]
  --------------------------------------------------------------------------------------------------------

*** Psi4 exiting successfully. Buy a developer a beer!
