                               Psi4 1.4a2.dev224

  ==> Input File <==

--------------------------------------------------------------------------
#Generated by lconvert.py for sapt job

memory 20 GB

molecule  {
0 1
 Br       2.177490   -0.607410    0.000150
  C       1.823120    1.288190    0.000110
  H       0.749230    1.426570    0.000140
  H       2.269760    1.710430   -0.891300
  H       2.269820    1.710470    0.891480
--
0 1
 Br      -5.353920    1.052400    0.000170
  C      -4.999800   -0.843240    0.000130
  H      -5.446630   -1.265440   -0.891210
  H      -5.446430   -1.265440    0.891570
  H      -3.925930   -0.981800    0.000010
units angstrom
no_reorient
symmetry c1
}

set {
scf_type DF
basis aug-cc-pvdz
freeze_core True
guess SAD
}
energy('sapt2+')
--------------------------------------------------------------------------

  //              Dimer HF             //
    Molecular point group: c1
  Charge       = 0
  Multiplicity = 1
  Basis Set: AUG-CC-PVDZ
    Blend: AUG-CC-PVDZ
  Basis Set: (AUG-CC-PVDZ AUX)
    Blend: AUG-CC-PVDZ-JKFIT
  @DF-RHF Final Energy: -5222.66257440310164
    Total Energy =                      -5222.6625744031016438
  //            Monomer A HF           //
    Molecular point group: c1
  Multiplicity = 1
  Basis Set: AUG-CC-PVDZ
    Blend: AUG-CC-PVDZ
  Basis Set: (AUG-CC-PVDZ AUX)
    Blend: AUG-CC-PVDZ-JKFIT
  @DF-RHF Final Energy: -2611.33109965684480
    Total Energy =                      -2611.3310996568443443
  //            Monomer B HF           //
    Molecular point group: c1

    Geometry (in Angstrom), charge = 0, multiplicity = 1:

       Center              X                  Y                   Z               Mass
    ------------   -----------------  -----------------  -----------------  -----------------
      Gh(BR)          3.765725741373    -0.829901479691    -0.000003442149    78.918337600000
      Gh(C)           3.411355741373     1.065698520309    -0.000043442149    12.000000000000
      Gh(H)           2.337465741373     1.204078520309    -0.000013442149     1.007825032230
      Gh(H)           3.857995741373     1.487938520309    -0.891453442149     1.007825032230
      Gh(H)           3.858055741373     1.487978520309     0.891326557851     1.007825032230
         BR          -3.765684258627     0.829908520309     0.000016557851    78.918337600000
         C           -3.411564258627    -1.065731479691    -0.000023442149    12.000000000000
         H           -3.858394258627    -1.487931479691    -0.891363442149     1.007825032230
         H           -3.858194258627    -1.487931479691     0.891416557851     1.007825032230
         H           -2.337694258627    -1.204291479691    -0.000143442149     1.007825032230

  Charge       = 0
  Multiplicity = 1
  Basis Set: AUG-CC-PVDZ
    Blend: AUG-CC-PVDZ
  Basis Set: (AUG-CC-PVDZ AUX)
    Blend: AUG-CC-PVDZ-JKFIT

    Orbital Energies [Eh]
    ---------------------

    Doubly Occupied:

       1A   -490.092309     2A    -65.226712     3A    -58.584022
       4A    -58.582651     5A    -58.582650     6A    -11.295925
       7A     -9.862563     8A     -7.475066     9A     -7.466787
      10A     -7.466786    11A     -3.076180    12A     -3.072019
      13A     -3.072016    14A     -3.062394    15A     -3.062393
      16A     -1.067873    17A     -0.900069    18A     -0.613965
      19A     -0.613415    20A     -0.509428    21A     -0.402648
      22A     -0.402592

  @DF-RHF Final Energy: -2611.33109957281113

   => Energetics <=

    Nuclear Repulsion Energy =             89.6704328700018181
    One-Electron Energy =               -3813.0221361078833979
    Two-Electron Energy =                1112.0206036650711212
    Total Energy =                      -2611.3310995728106718

  Dipole Moment: [D]
     X:     0.4010      Y:    -2.1536      Z:    -0.0000     Total:     2.1906

    SAPT Results
  --------------------------------------------------------------------------------------------------------
    Electrostatics                 -0.28045988 [mEh]      -0.17599123 [kcal/mol]      -0.73634730 [kJ/mol]
      Elst10,r                     -0.36005757 [mEh]      -0.22593953 [kcal/mol]      -0.94533101 [kJ/mol]
      Elst12,r                      0.07959769 [mEh]       0.04994830 [kcal/mol]       0.20898370 [kJ/mol]

    Exchange                        0.00013204 [mEh]       0.00008286 [kcal/mol]       0.00034667 [kJ/mol]
      Exch10                        0.00012153 [mEh]       0.00007626 [kcal/mol]       0.00031907 [kJ/mol]
      Exch10(S^2)                   0.00012153 [mEh]       0.00007626 [kcal/mol]       0.00031907 [kJ/mol]
      Exch11(S^2)                  -0.00000286 [mEh]      -0.00000179 [kcal/mol]      -0.00000750 [kJ/mol]
      Exch12(S^2)                   0.00001337 [mEh]       0.00000839 [kcal/mol]       0.00003510 [kJ/mol]

    Induction                      -0.01418744 [mEh]      -0.00890275 [kcal/mol]      -0.03724911 [kJ/mol]
      Ind20,r                      -0.00746998 [mEh]      -0.00468748 [kcal/mol]      -0.01961242 [kJ/mol]
      Ind22                         0.00105222 [mEh]       0.00066028 [kcal/mol]       0.00276259 [kJ/mol]
      Exch-Ind20,r                  0.00001593 [mEh]       0.00001000 [kcal/mol]       0.00004184 [kJ/mol]
      Exch-Ind22                   -0.00000224 [mEh]      -0.00000141 [kcal/mol]      -0.00000589 [kJ/mol]
      delta HF,r (2)               -0.00778337 [mEh]      -0.00488414 [kcal/mol]      -0.02043522 [kJ/mol]

    Dispersion                     -0.08767233 [mEh]      -0.05501522 [kcal/mol]      -0.23018366 [kJ/mol]
      Disp20                       -0.09513072 [mEh]      -0.05969543 [kcal/mol]      -0.24976568 [kJ/mol]
      Disp21                        0.01961384 [mEh]       0.01230787 [kcal/mol]       0.05149612 [kJ/mol]
      Disp22 (SDQ)                  0.00055287 [mEh]       0.00034693 [kcal/mol]       0.00145157 [kJ/mol]
      Disp22 (T)                   -0.01265178 [mEh]      -0.00793911 [kcal/mol]      -0.03321725 [kJ/mol]
      Est. Disp22 (T)              -0.01273121 [mEh]      -0.00798895 [kcal/mol]      -0.03342578 [kJ/mol]
      Exch-Disp20                   0.00002290 [mEh]       0.00001437 [kcal/mol]       0.00006011 [kJ/mol]

  Total HF                         -0.37517345 [mEh]      -0.23542489 [kcal/mol]      -0.98501775 [kJ/mol]
  Total SAPT0                      -0.47028127 [mEh]      -0.29510595 [kcal/mol]      -1.23472332 [kJ/mol]
  Total SAPT2                      -0.38962310 [mEh]      -0.24449219 [kcal/mol]      -1.02295531 [kJ/mol]
  Total SAPT2+                     -0.38218760 [mEh]      -0.23982634 [kcal/mol]      -1.00343341 [kJ/mol]

  Special recipe for scaled SAPT0 (see Manual):
    Electrostatics sSAPT0          -0.36005757 [mEh]      -0.22593953 [kcal/mol]      -0.94533101 [kJ/mol]
    Exchange sSAPT0                 0.00012153 [mEh]       0.00007626 [kcal/mol]       0.00031907 [kJ/mol]
    Induction sSAPT0               -0.01523741 [mEh]      -0.00956162 [kcal/mol]      -0.04000581 [kJ/mol]
    Dispersion sSAPT0              -0.09510783 [mEh]      -0.05968106 [kcal/mol]      -0.24970557 [kJ/mol]
  Total sSAPT0                     -0.47028127 [mEh]      -0.29510595 [kcal/mol]      -1.23472332 [kJ/mol]
  --------------------------------------------------------------------------------------------------------

*** Psi4 exiting successfully. Buy a developer a beer!
