                               Psi4 1.4a2.dev224

  ==> Input File <==

--------------------------------------------------------------------------
#Generated by lconvert.py for sapt job

memory 20 GB

molecule  {
0 1
 Br      -1.019580    0.000010    0.000000
  C      -2.946110    0.000020    0.000000
  H      -3.282260    1.029170   -0.000000
  H      -3.282270   -0.514550    0.891260
  H      -3.282270   -0.514550   -0.891260
--
0 1
 Br       5.610570    0.000020   -0.000010
  C       3.684250    0.000020   -0.000000
  H       3.346060    1.028790    0.000000
  H       3.346070   -0.514370    0.890940
  H       3.346060   -0.514370   -0.890940
units angstrom
no_reorient
symmetry c1
}

set {
scf_type DF
basis aug-cc-pvdz
freeze_core True
guess SAD
}
energy('sapt2+')
--------------------------------------------------------------------------

  //              Dimer HF             //
    Molecular point group: c1
  Charge       = 0
  Multiplicity = 1
  Basis Set: AUG-CC-PVDZ
    Blend: AUG-CC-PVDZ
  Basis Set: (AUG-CC-PVDZ AUX)
    Blend: AUG-CC-PVDZ-JKFIT
  @DF-RHF Final Energy: -5222.66271477153623
    Total Energy =                      -5222.6627147715362298
  //            Monomer A HF           //
    Molecular point group: c1
  Multiplicity = 1
  Basis Set: AUG-CC-PVDZ
    Blend: AUG-CC-PVDZ
  Basis Set: (AUG-CC-PVDZ AUX)
    Blend: AUG-CC-PVDZ-JKFIT
  @DF-RHF Final Energy: -2611.33113675410686
    Total Energy =                      -2611.3311367541068648
  //            Monomer B HF           //
    Molecular point group: c1

    Geometry (in Angstrom), charge = 0, multiplicity = 1:

       Center              X                  Y                   Z               Mass
    ------------   -----------------  -----------------  -----------------  -----------------
      Gh(BR)         -2.996143234788    -0.000005799616     0.000004200384    78.918337600000
      Gh(C)          -4.922673234788     0.000004200384     0.000004200384    12.000000000000
      Gh(H)          -5.258823234788     1.029154200384     0.000004200384     1.007825032230
      Gh(H)          -5.258833234788    -0.514565799616     0.891264200384     1.007825032230
      Gh(H)          -5.258833234788    -0.514565799616    -0.891255799616     1.007825032230
         BR           3.634006765212     0.000004200384    -0.000005799616    78.918337600000
         C            1.707686765212     0.000004200384     0.000004200384    12.000000000000
         H            1.369496765212     1.028774200384     0.000004200384     1.007825032230
         H            1.369506765212    -0.514385799616     0.890944200384     1.007825032230
         H            1.369496765212    -0.514385799616    -0.890935799616     1.007825032230

  Charge       = 0
  Multiplicity = 1
  Basis Set: AUG-CC-PVDZ
    Blend: AUG-CC-PVDZ
  Basis Set: (AUG-CC-PVDZ AUX)
    Blend: AUG-CC-PVDZ-JKFIT

    Orbital Energies [Eh]
    ---------------------

    Doubly Occupied:

       1A   -490.092651     2A    -65.227043     3A    -58.584355
       4A    -58.582983     5A    -58.582983     6A    -11.295599
       7A     -9.862881     8A     -7.475397     9A     -7.467103
      10A     -7.467103    11A     -3.076531    12A     -3.072347
      13A     -3.072347    14A     -3.062703    15A     -3.062703
      16A     -1.068182    17A     -0.900189    18A     -0.613009
      19A     -0.613007    20A     -0.510454    21A     -0.402757
      22A     -0.402756

  @DF-RHF Final Energy: -2611.33108620514622

   => Energetics <=

    Nuclear Repulsion Energy =             89.7150083891279593
    One-Electron Energy =               -3813.1020170008832793
    Two-Electron Energy =                1112.0559224066087154
    Total Energy =                      -2611.3310862051466756

  Dipole Moment: [D]
     X:    -2.1814      Y:    -0.0000      Z:     0.0000     Total:     2.1814

    SAPT Results
  --------------------------------------------------------------------------------------------------------
    Electrostatics                 -0.30603028 [mEh]      -0.19203690 [kcal/mol]      -0.80348238 [kJ/mol]
      Elst10,r                     -0.45038619 [mEh]      -0.28262160 [kcal/mol]      -1.18248879 [kJ/mol]
      Elst12,r                      0.14435592 [mEh]       0.09058471 [kcal/mol]       0.37900641 [kJ/mol]

    Exchange                        0.03815414 [mEh]       0.02394208 [kcal/mol]       0.10017368 [kJ/mol]
      Exch10                        0.03231127 [mEh]       0.02027563 [kcal/mol]       0.08483322 [kJ/mol]
      Exch10(S^2)                   0.03231059 [mEh]       0.02027520 [kcal/mol]       0.08483145 [kJ/mol]
      Exch11(S^2)                   0.00091805 [mEh]       0.00057608 [kcal/mol]       0.00241033 [kJ/mol]
      Exch12(S^2)                   0.00492482 [mEh]       0.00309037 [kcal/mol]       0.01293012 [kJ/mol]

    Induction                      -0.06954087 [mEh]      -0.04363755 [kcal/mol]      -0.18257952 [kJ/mol]
      Ind20,r                      -0.03918712 [mEh]      -0.02459029 [kcal/mol]      -0.10288577 [kJ/mol]
      Ind22                         0.00518272 [mEh]       0.00325220 [kcal/mol]       0.01360722 [kJ/mol]
      Exch-Ind20,r                  0.00745695 [mEh]       0.00467931 [kcal/mol]       0.01957823 [kJ/mol]
      Exch-Ind22                   -0.00098622 [mEh]      -0.00061886 [kcal/mol]      -0.00258933 [kJ/mol]
      delta HF,r (2)               -0.04200719 [mEh]      -0.02635991 [kcal/mol]      -0.11028986 [kJ/mol]

    Dispersion                     -0.47223537 [mEh]      -0.29633217 [kcal/mol]      -1.23985379 [kJ/mol]
      Disp20                       -0.49425787 [mEh]      -0.31015150 [kcal/mol]      -1.29767386 [kJ/mol]
      Disp21                        0.08078324 [mEh]       0.05069225 [kcal/mol]       0.21209637 [kJ/mol]
      Disp22 (SDQ)                  0.00809490 [mEh]       0.00507963 [kcal/mol]       0.02125316 [kJ/mol]
      Disp22 (T)                   -0.06972264 [mEh]      -0.04375162 [kcal/mol]      -0.18305676 [kJ/mol]
      Est. Disp22 (T)              -0.07177403 [mEh]      -0.04503888 [kcal/mol]      -0.18844268 [kJ/mol]
      Exch-Disp20                   0.00491839 [mEh]       0.00308633 [kcal/mol]       0.01291322 [kJ/mol]

  Total HF                         -0.49181228 [mEh]      -0.30861687 [kcal/mol]      -1.29125297 [kJ/mol]
  Total SAPT0                      -0.98115177 [mEh]      -0.61568203 [kcal/mol]      -2.57601361 [kJ/mol]
  Total SAPT2                      -0.82675649 [mEh]      -0.51879753 [kcal/mol]      -2.17064886 [kJ/mol]
  Total SAPT2+                     -0.80965237 [mEh]      -0.50806454 [kcal/mol]      -2.12574202 [kJ/mol]

  Special recipe for scaled SAPT0 (see Manual):
    Electrostatics sSAPT0          -0.45038619 [mEh]      -0.28262160 [kcal/mol]      -1.18248879 [kJ/mol]
    Exchange sSAPT0                 0.03231127 [mEh]       0.02027563 [kcal/mol]       0.08483322 [kJ/mol]
    Induction sSAPT0               -0.07373689 [mEh]      -0.04627060 [kcal/mol]      -0.19359618 [kJ/mol]
    Dispersion sSAPT0              -0.48933918 [mEh]      -0.30706497 [kcal/mol]      -1.28475983 [kJ/mol]
  Total sSAPT0                     -0.98115099 [mEh]      -0.61568154 [kcal/mol]      -2.57601157 [kJ/mol]
  --------------------------------------------------------------------------------------------------------

*** Psi4 exiting successfully. Buy a developer a beer!
