                               Psi4 1.4a2.dev224

  ==> Input File <==

--------------------------------------------------------------------------
#Generated by lconvert.py for sapt job

memory 20 GB

molecule  {
0 1
 Br      -1.019580    0.000010    0.000000
  C      -2.946110    0.000020    0.000000
  H      -3.282260    1.029170   -0.000000
  H      -3.282270   -0.514550    0.891260
  H      -3.282270   -0.514550   -0.891260
--
0 1
 Br       6.731200    0.000020   -0.000010
  C       4.804880    0.000020   -0.000000
  H       4.466690    1.028790   -0.000000
  H       4.466700   -0.514370    0.890940
  H       4.466690   -0.514370   -0.890940
units angstrom
no_reorient
symmetry c1
}

set {
scf_type DF
basis aug-cc-pvdz
freeze_core True
guess SAD
}
energy('sapt2+')
--------------------------------------------------------------------------

  //              Dimer HF             //
    Molecular point group: c1
  Charge       = 0
  Multiplicity = 1
  Basis Set: AUG-CC-PVDZ
    Blend: AUG-CC-PVDZ
  Basis Set: (AUG-CC-PVDZ AUX)
    Blend: AUG-CC-PVDZ-JKFIT
  @DF-RHF Final Energy: -5222.66251571788325
    Total Energy =                      -5222.6625157178832524
  //            Monomer A HF           //
    Molecular point group: c1
  Multiplicity = 1
  Basis Set: AUG-CC-PVDZ
    Blend: AUG-CC-PVDZ
  Basis Set: (AUG-CC-PVDZ AUX)
    Blend: AUG-CC-PVDZ-JKFIT
  @DF-RHF Final Energy: -2611.33109525123791
    Total Energy =                      -2611.3310952512379117
  //            Monomer B HF           //
    Molecular point group: c1

    Geometry (in Angstrom), charge = 0, multiplicity = 1:

       Center              X                  Y                   Z               Mass
    ------------   -----------------  -----------------  -----------------  -----------------
      Gh(BR)         -3.556458234788    -0.000005799616     0.000004200384    78.918337600000
      Gh(C)          -5.482988234788     0.000004200384     0.000004200384    12.000000000000
      Gh(H)          -5.819138234788     1.029154200384     0.000004200384     1.007825032230
      Gh(H)          -5.819148234788    -0.514565799616     0.891264200384     1.007825032230
      Gh(H)          -5.819148234788    -0.514565799616    -0.891255799616     1.007825032230
         BR           4.194321765212     0.000004200384    -0.000005799616    78.918337600000
         C            2.268001765212     0.000004200384     0.000004200384    12.000000000000
         H            1.929811765212     1.028774200384     0.000004200384     1.007825032230
         H            1.929821765212    -0.514385799616     0.890944200384     1.007825032230
         H            1.929811765212    -0.514385799616    -0.890935799616     1.007825032230

  Charge       = 0
  Multiplicity = 1
  Basis Set: AUG-CC-PVDZ
    Blend: AUG-CC-PVDZ
  Basis Set: (AUG-CC-PVDZ AUX)
    Blend: AUG-CC-PVDZ-JKFIT

    Orbital Energies [Eh]
    ---------------------

    Doubly Occupied:

       1A   -490.092621     2A    -65.227026     3A    -58.584337
       4A    -58.582964     5A    -58.582964     6A    -11.295611
       7A     -9.862882     8A     -7.475397     9A     -7.467103
      10A     -7.467103    11A     -3.076524    12A     -3.072344
      13A     -3.072344    14A     -3.062703    15A     -3.062703
      16A     -1.068194    17A     -0.900197    18A     -0.613017
      19A     -0.613015    20A     -0.510460    21A     -0.402773
      22A     -0.402772

  @DF-RHF Final Energy: -2611.33106978272144

   => Energetics <=

    Nuclear Repulsion Energy =             89.7150083891278882
    One-Electron Energy =               -3813.1020462476658395
    Two-Electron Energy =                1112.0559680758169634
    Total Energy =                      -2611.3310697827209879

  Dipole Moment: [D]
     X:    -2.1821      Y:    -0.0000      Z:     0.0000     Total:     2.1821

    SAPT Results
  --------------------------------------------------------------------------------------------------------
    Electrostatics                 -0.17328886 [mEh]      -0.10874040 [kcal/mol]      -0.45496983 [kJ/mol]
      Elst10,r                     -0.27387138 [mEh]      -0.17185689 [kcal/mol]      -0.71904921 [kJ/mol]
      Elst12,r                      0.10058252 [mEh]       0.06311649 [kcal/mol]       0.26407938 [kJ/mol]

    Exchange                        0.00068757 [mEh]       0.00043146 [kcal/mol]       0.00180521 [kJ/mol]
      Exch10                        0.00056696 [mEh]       0.00035578 [kcal/mol]       0.00148856 [kJ/mol]
      Exch10(S^2)                   0.00056696 [mEh]       0.00035577 [kcal/mol]       0.00148856 [kJ/mol]
      Exch11(S^2)                   0.00001734 [mEh]       0.00001088 [kcal/mol]       0.00004552 [kJ/mol]
      Exch12(S^2)                   0.00010327 [mEh]       0.00006480 [kcal/mol]       0.00027113 [kJ/mol]

    Induction                      -0.07470767 [mEh]      -0.04687977 [kcal/mol]      -0.19614495 [kJ/mol]
      Ind20,r                      -0.01258808 [mEh]      -0.00789914 [kcal/mol]      -0.03305001 [kJ/mol]
      Ind22                         0.00269337 [mEh]       0.00169012 [kcal/mol]       0.00707145 [kJ/mol]
      Exch-Ind20,r                  0.00010063 [mEh]       0.00006315 [kcal/mol]       0.00026421 [kJ/mol]
      Exch-Ind22                   -0.00002153 [mEh]      -0.00001351 [kcal/mol]      -0.00005653 [kJ/mol]
      delta HF,r (2)               -0.06489206 [mEh]      -0.04072038 [kcal/mol]      -0.17037407 [kJ/mol]

    Dispersion                     -0.13437260 [mEh]      -0.08432008 [kcal/mol]      -0.35279521 [kJ/mol]
      Disp20                       -0.14193815 [mEh]      -0.08906753 [kcal/mol]      -0.37265856 [kJ/mol]
      Disp21                        0.02598833 [mEh]       0.01630792 [kcal/mol]       0.06823234 [kJ/mol]
      Disp22 (SDQ)                  0.00255804 [mEh]       0.00160519 [kcal/mol]       0.00671612 [kJ/mol]
      Disp22 (T)                   -0.02086656 [mEh]      -0.01309396 [kcal/mol]      -0.05478515 [kJ/mol]
      Est. Disp22 (T)              -0.02108809 [mEh]      -0.01323298 [kcal/mol]      -0.05536679 [kJ/mol]
      Exch-Disp20                   0.00010728 [mEh]       0.00006732 [kcal/mol]       0.00028167 [kJ/mol]

  Total HF                         -0.35068392 [mEh]      -0.22005748 [kcal/mol]      -0.92072052 [kJ/mol]
  Total SAPT0                      -0.49251479 [mEh]      -0.30905770 [kcal/mol]      -1.29309740 [kJ/mol]
  Total SAPT2                      -0.38913982 [mEh]      -0.24418892 [kcal/mol]      -1.02168645 [kJ/mol]
  Total SAPT2+                     -0.38168155 [mEh]      -0.23950879 [kcal/mol]      -1.00210477 [kJ/mol]

  Special recipe for scaled SAPT0 (see Manual):
    Electrostatics sSAPT0          -0.27387138 [mEh]      -0.17185689 [kcal/mol]      -0.71904921 [kJ/mol]
    Exchange sSAPT0                 0.00056696 [mEh]       0.00035578 [kcal/mol]       0.00148856 [kJ/mol]
    Induction sSAPT0               -0.07737951 [mEh]      -0.04855637 [kcal/mol]      -0.20315987 [kJ/mol]
    Dispersion sSAPT0              -0.14183087 [mEh]      -0.08900021 [kcal/mol]      -0.37237689 [kJ/mol]
  Total sSAPT0                     -0.49251479 [mEh]      -0.30905770 [kcal/mol]      -1.29309740 [kJ/mol]
  --------------------------------------------------------------------------------------------------------

*** Psi4 exiting successfully. Buy a developer a beer!
