                               Psi4 1.4a2.dev224

  ==> Input File <==

--------------------------------------------------------------------------
#Generated by lconvert.py for sapt job

memory 20 GB

molecule  {
0 1
 Br      -1.019580    0.000010    0.000000
  C      -2.946110    0.000020    0.000000
  H      -3.282260    1.029170   -0.000000
  H      -3.282270   -0.514550    0.891260
  H      -3.282270   -0.514550   -0.891260
--
0 1
 Br       7.851830    0.000020   -0.000010
  C       5.925510    0.000020   -0.000010
  H       5.587320    1.028790   -0.000010
  H       5.587320   -0.514370    0.890930
  H       5.587320   -0.514370   -0.890950
units angstrom
no_reorient
symmetry c1
}

set {
scf_type DF
basis aug-cc-pvdz
freeze_core True
guess SAD
}
energy('sapt2+')
--------------------------------------------------------------------------

  //              Dimer HF             //
    Molecular point group: c1
  Charge       = 0
  Multiplicity = 1
  Basis Set: AUG-CC-PVDZ
    Blend: AUG-CC-PVDZ
  Basis Set: (AUG-CC-PVDZ AUX)
    Blend: AUG-CC-PVDZ-JKFIT
  @DF-RHF Final Energy: -5222.66238603225338
    Total Energy =                      -5222.6623860322524706
  //            Monomer A HF           //
    Molecular point group: c1
  Multiplicity = 1
  Basis Set: AUG-CC-PVDZ
    Blend: AUG-CC-PVDZ
  Basis Set: (AUG-CC-PVDZ AUX)
    Blend: AUG-CC-PVDZ-JKFIT
  @DF-RHF Final Energy: -2611.33107612064396
    Total Energy =                      -2611.3310761206444113
  //            Monomer B HF           //
    Molecular point group: c1

    Geometry (in Angstrom), charge = 0, multiplicity = 1:

       Center              X                  Y                   Z               Mass
    ------------   -----------------  -----------------  -----------------  -----------------
      Gh(BR)         -4.116773181147    -0.000005799616     0.000005000000    78.918337600000
      Gh(C)          -6.043303181147     0.000004200384     0.000005000000    12.000000000000
      Gh(H)          -6.379453181147     1.029154200384     0.000005000000     1.007825032230
      Gh(H)          -6.379463181147    -0.514565799616     0.891265000000     1.007825032230
      Gh(H)          -6.379463181147    -0.514565799616    -0.891255000000     1.007825032230
         BR           4.754636818853     0.000004200384    -0.000005000000    78.918337600000
         C            2.828316818853     0.000004200384    -0.000005000000    12.000000000000
         H            2.490126818853     1.028774200384    -0.000005000000     1.007825032230
         H            2.490126818853    -0.514385799616     0.890935000000     1.007825032230
         H            2.490126818853    -0.514385799616    -0.890945000000     1.007825032230

  Charge       = 0
  Multiplicity = 1
  Basis Set: AUG-CC-PVDZ
    Blend: AUG-CC-PVDZ
  Basis Set: (AUG-CC-PVDZ AUX)
    Blend: AUG-CC-PVDZ-JKFIT

    Orbital Energies [Eh]
    ---------------------

    Doubly Occupied:

       1A   -490.092611     2A    -65.227019     3A    -58.584330
       4A    -58.582957     5A    -58.582957     6A    -11.295597
       7A     -9.862879     8A     -7.475394     9A     -7.467099
      10A     -7.467099    11A     -3.076518    12A     -3.072339
      13A     -3.072339    14A     -3.062699    15A     -3.062699
      16A     -1.068193    17A     -0.900197    18A     -0.613017
      19A     -0.613015    20A     -0.510462    21A     -0.402770
      22A     -0.402770

  @DF-RHF Final Energy: -2611.33105874677130

   => Energetics <=

    Nuclear Repulsion Energy =             89.7149726775853793
    One-Electron Energy =               -3813.1021402176188531
    Two-Electron Energy =                1112.0561087932617284
    Total Energy =                      -2611.3310587467713049

  Dipole Moment: [D]
     X:    -2.1813      Y:    -0.0000      Z:     0.0000     Total:     2.1813

    SAPT Results
  --------------------------------------------------------------------------------------------------------
    Electrostatics                 -0.10908383 [mEh]      -0.06845114 [kcal/mol]      -0.28639956 [kJ/mol]
      Elst10,r                     -0.17948611 [mEh]      -0.11262924 [kcal/mol]      -0.47124072 [kJ/mol]
      Elst12,r                      0.07040228 [mEh]       0.04417810 [kcal/mol]       0.18484116 [kJ/mol]

    Exchange                       -0.00001938 [mEh]      -0.00001216 [kcal/mol]      -0.00005088 [kJ/mol]
      Exch10                       -0.00000337 [mEh]      -0.00000211 [kcal/mol]      -0.00000885 [kJ/mol]
      Exch10(S^2)                  -0.00000337 [mEh]      -0.00000211 [kcal/mol]      -0.00000885 [kJ/mol]
      Exch11(S^2)                   0.00000086 [mEh]       0.00000054 [kcal/mol]       0.00000226 [kJ/mol]
      Exch12(S^2)                  -0.00001687 [mEh]      -0.00001058 [kcal/mol]      -0.00004429 [kJ/mol]

    Induction                      -0.07050792 [mEh]      -0.04424439 [kcal/mol]      -0.18511852 [kJ/mol]
      Ind20,r                      -0.00568450 [mEh]      -0.00356708 [kcal/mol]      -0.01492466 [kJ/mol]
      Ind22                         0.00117323 [mEh]       0.00073622 [kcal/mol]       0.00308033 [kJ/mol]
      Exch-Ind20,r                  0.00002810 [mEh]       0.00001763 [kcal/mol]       0.00007378 [kJ/mol]
      Exch-Ind22                   -0.00000580 [mEh]      -0.00000364 [kcal/mol]      -0.00001523 [kJ/mol]
      delta HF,r (2)               -0.06601896 [mEh]      -0.04142752 [kcal/mol]      -0.17333275 [kJ/mol]

    Dispersion                     -0.04966085 [mEh]      -0.03116265 [kcal/mol]      -0.13038454 [kJ/mol]
      Disp20                       -0.05274729 [mEh]      -0.03309943 [kcal/mol]      -0.13848800 [kJ/mol]
      Disp21                        0.01010348 [mEh]       0.00634003 [kcal/mol]       0.02652668 [kJ/mol]
      Disp22 (SDQ)                  0.00096499 [mEh]       0.00060554 [kcal/mol]       0.00253358 [kJ/mol]
      Disp22 (T)                   -0.00795985 [mEh]      -0.00499488 [kcal/mol]      -0.02089859 [kJ/mol]
      Est. Disp22 (T)              -0.00798801 [mEh]      -0.00501255 [kcal/mol]      -0.02097252 [kJ/mol]
      Exch-Disp20                   0.00000599 [mEh]       0.00000376 [kcal/mol]       0.00001572 [kJ/mol]

  Total HF                         -0.25116484 [mEh]      -0.15760832 [kcal/mol]      -0.65943319 [kJ/mol]
  Total SAPT0                      -0.30390614 [mEh]      -0.19070398 [kcal/mol]      -0.79790547 [kJ/mol]
  Total SAPT2                      -0.23235244 [mEh]      -0.14580336 [kcal/mol]      -0.61004124 [kJ/mol]
  Total SAPT2+                     -0.22927198 [mEh]      -0.14387034 [kcal/mol]      -0.60195350 [kJ/mol]

  Special recipe for scaled SAPT0 (see Manual):
    Electrostatics sSAPT0          -0.17948611 [mEh]      -0.11262924 [kcal/mol]      -0.47124072 [kJ/mol]
    Exchange sSAPT0                -0.00000337 [mEh]      -0.00000211 [kcal/mol]      -0.00000885 [kJ/mol]
    Induction sSAPT0               -0.07167536 [mEh]      -0.04497697 [kcal/mol]      -0.18818362 [kJ/mol]
    Dispersion sSAPT0              -0.05274131 [mEh]      -0.03309567 [kcal/mol]      -0.13847228 [kJ/mol]
  Total sSAPT0                     -0.30390614 [mEh]      -0.19070398 [kcal/mol]      -0.79790547 [kJ/mol]
  --------------------------------------------------------------------------------------------------------

*** Psi4 exiting successfully. Buy a developer a beer!
