                               Psi4 1.4a2.dev224

  ==> Input File <==

--------------------------------------------------------------------------
#Generated by lconvert.py for sapt job

memory 20 GB

molecule  {
0 1
  F       1.865440   -0.037080   -0.000230
  C       0.515310   -0.022010   -0.000110
  C      -0.137120    1.200150   -0.000160
  C      -0.164210   -1.229310    0.000060
  C      -1.530320    1.207010   -0.000040
  C      -1.557220   -1.205090    0.000180
  C      -2.241540    0.008740    0.000130
  H       0.438180    2.114300   -0.000290
  H       0.390600   -2.156030    0.000100
  H      -2.056610    2.151160   -0.000080
  H      -2.104440   -2.137270    0.000310
  H      -3.321950    0.020780    0.000220
--
0 1
  O       5.983240    0.062880    0.001950
  H       5.380410    0.044550    0.747980
  H       5.385860    0.046450   -0.748490
units angstrom
no_reorient
symmetry c1
}

set {
scf_type DF
basis aug-cc-pvdz
freeze_core True
guess SAD
}
energy('sapt2+')
--------------------------------------------------------------------------

  //              Dimer HF             //
    Molecular point group: c1
  Charge       = 0
  Multiplicity = 1
  Basis Set: AUG-CC-PVDZ
    Blend: AUG-CC-PVDZ
  Basis Set: (AUG-CC-PVDZ AUX)
    Blend: AUG-CC-PVDZ-JKFIT
  @DF-RHF Final Energy:  -405.63484206968417
    Total Energy =                       -405.6348420696841686
  //            Monomer A HF           //
    Molecular point group: c1
  Multiplicity = 1
  Basis Set: AUG-CC-PVDZ
    Blend: AUG-CC-PVDZ
  Basis Set: (AUG-CC-PVDZ AUX)
    Blend: AUG-CC-PVDZ-JKFIT
  @DF-RHF Final Energy:  -329.59229191590293
    Total Energy =                       -329.5922919159029334
  //            Monomer B HF           //
    Molecular point group: c1

    Geometry (in Angstrom), charge = 0, multiplicity = 1:

       Center              X                  Y                   Z               Mass
    ------------   -----------------  -----------------  -----------------  -----------------
      Gh(F)           1.217425472805    -0.036201215251    -0.000469271818    18.998403162730
      Gh(C)          -0.132704527195    -0.021131215251    -0.000349271818    12.000000000000
      Gh(C)          -0.785134527195     1.201028784749    -0.000399271818    12.000000000000
      Gh(C)          -0.812224527195    -1.228431215251    -0.000179271818    12.000000000000
      Gh(C)          -2.178334527195     1.207888784749    -0.000279271818    12.000000000000
      Gh(C)          -2.205234527195    -1.204211215251    -0.000059271818    12.000000000000
      Gh(C)          -2.889554527195     0.009618784749    -0.000109271818    12.000000000000
      Gh(H)          -0.209834527195     2.115178784749    -0.000529271818     1.007825032230
      Gh(H)          -0.257414527195    -2.155151215251    -0.000139271818     1.007825032230
      Gh(H)          -2.704624527195     2.152038784749    -0.000319271818     1.007825032230
      Gh(H)          -2.752454527195    -2.136391215251     0.000070728182     1.007825032230
      Gh(H)          -3.969964527195     0.021658784749    -0.000019271818     1.007825032230
         O            5.335225472805     0.063758784749     0.001710728182    15.994914619570
         H            4.732395472805     0.045428784749     0.747740728182     1.007825032230
         H            4.737845472805     0.047328784749    -0.748729271818     1.007825032230

  Charge       = 0
  Multiplicity = 1
  Basis Set: AUG-CC-PVDZ
    Blend: AUG-CC-PVDZ
  Basis Set: (AUG-CC-PVDZ AUX)
    Blend: AUG-CC-PVDZ-JKFIT

    Orbital Energies [Eh]
    ---------------------

    Doubly Occupied:

       1A    -20.578502     2A     -1.357022     3A     -0.714167
       4A     -0.589190     5A     -0.509811

  @DF-RHF Final Energy:   -76.04113857510305

   => Energetics <=

    Nuclear Repulsion Energy =              9.1794765143002639
    One-Electron Energy =                -122.9438461303819281
    Two-Electron Energy =                  37.7232310409786251
    Total Energy =                        -76.0411385751030480

  Dipole Moment: [D]
     X:    -2.0320      Y:    -0.0588      Z:    -0.0075     Total:     2.0329

    SAPT Results
  --------------------------------------------------------------------------------------------------------
    Electrostatics                 -1.07728013 [mEh]      -0.67600349 [kcal/mol]      -2.82839858 [kJ/mol]
      Elst10,r                     -1.36914499 [mEh]      -0.85915145 [kcal/mol]      -3.59468967 [kJ/mol]
      Elst12,r                      0.29186486 [mEh]       0.18314797 [kcal/mol]       0.76629109 [kJ/mol]

    Exchange                        0.04290265 [mEh]       0.02692182 [kcal/mol]       0.11264089 [kJ/mol]
      Exch10                        0.02809347 [mEh]       0.01762892 [kcal/mol]       0.07375940 [kJ/mol]
      Exch10(S^2)                   0.02809280 [mEh]       0.01762850 [kcal/mol]       0.07375765 [kJ/mol]
      Exch11(S^2)                  -0.00091212 [mEh]      -0.00057236 [kcal/mol]      -0.00239477 [kJ/mol]
      Exch12(S^2)                   0.01572130 [mEh]       0.00986526 [kcal/mol]       0.04127626 [kJ/mol]

    Induction                      -0.06876304 [mEh]      -0.04314946 [kcal/mol]      -0.18053734 [kJ/mol]
      Ind20,r                      -0.07113175 [mEh]      -0.04463585 [kcal/mol]      -0.18675639 [kJ/mol]
      Ind22                         0.00188716 [mEh]       0.00118421 [kcal/mol]       0.00495473 [kJ/mol]
      Exch-Ind20,r                  0.00463758 [mEh]       0.00291012 [kcal/mol]       0.01217596 [kJ/mol]
      Exch-Ind22                   -0.00012304 [mEh]      -0.00007721 [kcal/mol]      -0.00032303 [kJ/mol]
      delta HF,r (2)               -0.00403299 [mEh]      -0.00253074 [kcal/mol]      -0.01058860 [kJ/mol]

    Dispersion                     -0.28921208 [mEh]      -0.18148332 [kcal/mol]      -0.75932621 [kJ/mol]
      Disp20                       -0.25193893 [mEh]      -0.15809407 [kcal/mol]      -0.66146557 [kJ/mol]
      Disp21                        0.02458795 [mEh]       0.01542917 [kcal/mol]       0.06455564 [kJ/mol]
      Disp22 (SDQ)                 -0.01441396 [mEh]      -0.00904489 [kcal/mol]      -0.03784384 [kJ/mol]
      Disp22 (T)                   -0.04862032 [mEh]      -0.03050971 [kcal/mol]      -0.12765262 [kJ/mol]
      Est. Disp22 (T)              -0.05031219 [mEh]      -0.03157138 [kcal/mol]      -0.13209464 [kJ/mol]
      Exch-Disp20                   0.00286505 [mEh]       0.00179785 [kcal/mol]       0.00752219 [kJ/mol]

  Total HF                         -1.41157868 [mEh]      -0.88577899 [kcal/mol]      -3.70609931 [kJ/mol]
  Total SAPT0                      -1.66065256 [mEh]      -1.04207521 [kcal/mol]      -4.36004268 [kJ/mol]
  Total SAPT2                      -1.35221440 [mEh]      -0.84852734 [kcal/mol]      -3.55023841 [kJ/mol]
  Total SAPT2+                     -1.39235260 [mEh]      -0.87371445 [kcal/mol]      -3.65562125 [kJ/mol]

  Special recipe for scaled SAPT0 (see Manual):
    Electrostatics sSAPT0          -1.36914499 [mEh]      -0.85915145 [kcal/mol]      -3.59468967 [kJ/mol]
    Exchange sSAPT0                 0.02809347 [mEh]       0.01762892 [kcal/mol]       0.07375940 [kJ/mol]
    Induction sSAPT0               -0.07052683 [mEh]      -0.04425625 [kcal/mol]      -0.18516817 [kJ/mol]
    Dispersion sSAPT0              -0.24907367 [mEh]      -0.15629609 [kcal/mol]      -0.65394284 [kJ/mol]
  Total sSAPT0                     -1.66065202 [mEh]      -1.04207488 [kcal/mol]      -4.36004128 [kJ/mol]
  --------------------------------------------------------------------------------------------------------

*** Psi4 exiting successfully. Buy a developer a beer!
