                               Psi4 1.4a2.dev224

  ==> Input File <==

--------------------------------------------------------------------------
#Generated by lconvert.py for sapt job

memory 20 GB

molecule  {
0 1
  F       1.865440   -0.037080   -0.000230
  C       0.515310   -0.022010   -0.000110
  C      -0.137120    1.200150   -0.000160
  C      -0.164210   -1.229310    0.000060
  C      -1.530320    1.207010   -0.000040
  C      -1.557220   -1.205090    0.000180
  C      -2.241540    0.008740    0.000130
  H       0.438180    2.114300   -0.000290
  H       0.390600   -2.156030    0.000100
  H      -2.056610    2.151160   -0.000080
  H      -2.104440   -2.137270    0.000310
  H      -3.321950    0.020780    0.000220
--
0 1
  O       6.933500    0.085940    0.002450
  H       6.330670    0.067620    0.748480
  H       6.336120    0.069520   -0.747990
units angstrom
no_reorient
symmetry c1
}

set {
scf_type DF
basis aug-cc-pvdz
freeze_core True
guess SAD
}
energy('sapt2+')
--------------------------------------------------------------------------

  //              Dimer HF             //
    Molecular point group: c1
  Charge       = 0
  Multiplicity = 1
  Basis Set: AUG-CC-PVDZ
    Blend: AUG-CC-PVDZ
  Basis Set: (AUG-CC-PVDZ AUX)
    Blend: AUG-CC-PVDZ-JKFIT
  @DF-RHF Final Energy:  -405.63418093600785
    Total Energy =                       -405.6341809360078514
  //            Monomer A HF           //
    Molecular point group: c1
  Multiplicity = 1
  Basis Set: AUG-CC-PVDZ
    Blend: AUG-CC-PVDZ
  Basis Set: (AUG-CC-PVDZ AUX)
    Blend: AUG-CC-PVDZ-JKFIT
  @DF-RHF Final Energy:  -329.59224990128877
    Total Energy =                       -329.5922499012887670
  //            Monomer B HF           //
    Molecular point group: c1

    Geometry (in Angstrom), charge = 0, multiplicity = 1:

       Center              X                  Y                   Z               Mass
    ------------   -----------------  -----------------  -----------------  -----------------
      Gh(F)           1.067359665080    -0.039843045352    -0.000548232212    18.998403162730
      Gh(C)          -0.282770334920    -0.024773045352    -0.000428232212    12.000000000000
      Gh(C)          -0.935200334920     1.197386954648    -0.000478232212    12.000000000000
      Gh(C)          -0.962290334920    -1.232073045352    -0.000258232212    12.000000000000
      Gh(C)          -2.328400334920     1.204246954648    -0.000358232212    12.000000000000
      Gh(C)          -2.355300334920    -1.207853045352    -0.000138232212    12.000000000000
      Gh(C)          -3.039620334920     0.005976954648    -0.000188232212    12.000000000000
      Gh(H)          -0.359900334920     2.111536954648    -0.000608232212     1.007825032230
      Gh(H)          -0.407480334920    -2.158793045352    -0.000218232212     1.007825032230
      Gh(H)          -2.854690334920     2.148396954648    -0.000398232212     1.007825032230
      Gh(H)          -2.902520334920    -2.140033045352    -0.000008232212     1.007825032230
      Gh(H)          -4.120030334920     0.018016954648    -0.000098232212     1.007825032230
         O            6.135419665080     0.083176954648     0.002131767788    15.994914619570
         H            5.532589665080     0.064856954648     0.748161767788     1.007825032230
         H            5.538039665080     0.066756954648    -0.748308232212     1.007825032230

  Charge       = 0
  Multiplicity = 1
  Basis Set: AUG-CC-PVDZ
    Blend: AUG-CC-PVDZ
  Basis Set: (AUG-CC-PVDZ AUX)
    Blend: AUG-CC-PVDZ-JKFIT

    Orbital Energies [Eh]
    ---------------------

    Doubly Occupied:

       1A    -20.578493     2A     -1.357040     3A     -0.714191
       4A     -0.589198     5A     -0.509836

  @DF-RHF Final Energy:   -76.04110671234812

   => Energetics <=

    Nuclear Repulsion Energy =              9.1794781806032617
    One-Electron Energy =                -122.9436514689408000
    Two-Electron Energy =                  37.7230665759893995
    Total Energy =                        -76.0411067123481246

  Dipole Moment: [D]
     X:    -2.0338      Y:    -0.0588      Z:    -0.0075     Total:     2.0347

    SAPT Results
  --------------------------------------------------------------------------------------------------------
    Electrostatics                 -0.62857916 [mEh]      -0.39443938 [kcal/mol]      -1.65033437 [kJ/mol]
      Elst10,r                     -0.80024870 [mEh]      -0.50216364 [kcal/mol]      -2.10105266 [kJ/mol]
      Elst12,r                      0.17166953 [mEh]       0.10772426 [kcal/mol]       0.45071830 [kJ/mol]

    Exchange                        0.00110111 [mEh]       0.00069096 [kcal/mol]       0.00289098 [kJ/mol]
      Exch10                        0.00064831 [mEh]       0.00040682 [kcal/mol]       0.00170214 [kJ/mol]
      Exch10(S^2)                   0.00064831 [mEh]       0.00040682 [kcal/mol]       0.00170214 [kJ/mol]
      Exch11(S^2)                  -0.00003932 [mEh]      -0.00002467 [kcal/mol]      -0.00010323 [kJ/mol]
      Exch12(S^2)                   0.00049212 [mEh]       0.00030881 [kcal/mol]       0.00129207 [kJ/mol]

    Induction                      -0.02286442 [mEh]      -0.01434764 [kcal/mol]      -0.06003053 [kJ/mol]
      Ind20,r                      -0.02377390 [mEh]      -0.01491835 [kcal/mol]      -0.06241836 [kJ/mol]
      Ind22                         0.00186437 [mEh]       0.00116991 [kcal/mol]       0.00489490 [kJ/mol]
      Exch-Ind20,r                  0.00008678 [mEh]       0.00005445 [kcal/mol]       0.00022784 [kJ/mol]
      Exch-Ind22                   -0.00000681 [mEh]      -0.00000427 [kcal/mol]      -0.00001787 [kJ/mol]
      delta HF,r (2)               -0.00103487 [mEh]      -0.00064939 [kcal/mol]      -0.00271704 [kJ/mol]

    Dispersion                     -0.08998881 [mEh]      -0.05646883 [kcal/mol]      -0.23626558 [kJ/mol]
      Disp20                       -0.08013238 [mEh]      -0.05028383 [kcal/mol]      -0.21038754 [kJ/mol]
      Disp21                        0.01018927 [mEh]       0.00639386 [kcal/mol]       0.02675193 [kJ/mol]
      Disp22 (SDQ)                 -0.00381273 [mEh]      -0.00239252 [kcal/mol]      -0.01001031 [kJ/mol]
      Disp22 (T)                   -0.01601818 [mEh]      -0.01005156 [kcal/mol]      -0.04205572 [kJ/mol]
      Est. Disp22 (T)              -0.01632718 [mEh]      -0.01024546 [kcal/mol]      -0.04286701 [kJ/mol]
      Exch-Disp20                   0.00009421 [mEh]       0.00005912 [kcal/mol]       0.00024735 [kJ/mol]

  Total HF                         -0.82432237 [mEh]      -0.51727010 [kcal/mol]      -2.16425809 [kJ/mol]
  Total SAPT0                      -0.90436054 [mEh]      -0.56749481 [kcal/mol]      -2.37439827 [kJ/mol]
  Total SAPT2                      -0.73038064 [mEh]      -0.45832077 [kcal/mol]      -1.91761411 [kJ/mol]
  Total SAPT2+                     -0.74033128 [mEh]      -0.46456489 [kcal/mol]      -1.94373950 [kJ/mol]

  Special recipe for scaled SAPT0 (see Manual):
    Electrostatics sSAPT0          -0.80024870 [mEh]      -0.50216364 [kcal/mol]      -2.10105266 [kJ/mol]
    Exchange sSAPT0                 0.00064831 [mEh]       0.00040682 [kcal/mol]       0.00170214 [kJ/mol]
    Induction sSAPT0               -0.02472199 [mEh]      -0.01551328 [kcal/mol]      -0.06490756 [kJ/mol]
    Dispersion sSAPT0              -0.08003817 [mEh]      -0.05022471 [kcal/mol]      -0.21014019 [kJ/mol]
  Total sSAPT0                     -0.90436054 [mEh]      -0.56749481 [kcal/mol]      -2.37439827 [kJ/mol]
  --------------------------------------------------------------------------------------------------------

*** Psi4 exiting successfully. Buy a developer a beer!
