                               Psi4 1.4a2.dev224

  ==> Input File <==

--------------------------------------------------------------------------
#Generated by lconvert.py for sapt job

memory 20 GB

molecule  {
0 1
  F       1.865440   -0.037080   -0.000230
  C       0.515310   -0.022010   -0.000110
  C      -0.137120    1.200150   -0.000160
  C      -0.164210   -1.229310    0.000060
  C      -1.530320    1.207010   -0.000040
  C      -1.557220   -1.205090    0.000180
  C      -2.241540    0.008740    0.000130
  H       0.438180    2.114300   -0.000290
  H       0.390600   -2.156030    0.000100
  H      -2.056610    2.151160   -0.000080
  H      -2.104440   -2.137270    0.000310
  H      -3.321950    0.020780    0.000220
--
0 1
  O       7.883760    0.109010    0.002950
  H       7.280930    0.090680    0.748980
  H       7.286380    0.092590   -0.747490
units angstrom
no_reorient
symmetry c1
}

set {
scf_type DF
basis aug-cc-pvdz
freeze_core True
guess SAD
}
energy('sapt2+')
--------------------------------------------------------------------------

  //              Dimer HF             //
    Molecular point group: c1
  Charge       = 0
  Multiplicity = 1
  Basis Set: AUG-CC-PVDZ
    Blend: AUG-CC-PVDZ
  Basis Set: (AUG-CC-PVDZ AUX)
    Blend: AUG-CC-PVDZ-JKFIT
  @DF-RHF Final Energy:  -405.63384287875408
    Total Energy =                       -405.6338428787540806
  //            Monomer A HF           //
    Molecular point group: c1
  Multiplicity = 1
  Basis Set: AUG-CC-PVDZ
    Blend: AUG-CC-PVDZ
  Basis Set: (AUG-CC-PVDZ AUX)
    Blend: AUG-CC-PVDZ-JKFIT
  @DF-RHF Final Energy:  -329.59223263267239
    Total Energy =                       -329.5922326326723919
  //            Monomer B HF           //
    Molecular point group: c1

    Geometry (in Angstrom), charge = 0, multiplicity = 1:

       Center              X                  Y                   Z               Mass
    ------------   -----------------  -----------------  -----------------  -----------------
      Gh(F)           0.917293857356    -0.043486189556    -0.000627192605    18.998403162730
      Gh(C)          -0.432836142644    -0.028416189556    -0.000507192605    12.000000000000
      Gh(C)          -1.085266142644     1.193743810444    -0.000557192605    12.000000000000
      Gh(C)          -1.112356142644    -1.235716189556    -0.000337192605    12.000000000000
      Gh(C)          -2.478466142644     1.200603810444    -0.000437192605    12.000000000000
      Gh(C)          -2.505366142644    -1.211496189556    -0.000217192605    12.000000000000
      Gh(C)          -3.189686142644     0.002333810444    -0.000267192605    12.000000000000
      Gh(H)          -0.509966142644     2.107893810444    -0.000687192605     1.007825032230
      Gh(H)          -0.557546142644    -2.162436189556    -0.000297192605     1.007825032230
      Gh(H)          -3.004756142644     2.144753810444    -0.000477192605     1.007825032230
      Gh(H)          -3.052586142644    -2.143676189556    -0.000087192605     1.007825032230
      Gh(H)          -4.270096142644     0.014373810444    -0.000177192605     1.007825032230
         O            6.935613857356     0.102603810444     0.002552807395    15.994914619570
         H            6.332783857356     0.084273810444     0.748582807395     1.007825032230
         H            6.338233857356     0.086183810444    -0.747887192605     1.007825032230

  Charge       = 0
  Multiplicity = 1
  Basis Set: AUG-CC-PVDZ
    Blend: AUG-CC-PVDZ
  Basis Set: (AUG-CC-PVDZ AUX)
    Blend: AUG-CC-PVDZ-JKFIT

    Orbital Energies [Eh]
    ---------------------

    Doubly Occupied:

       1A    -20.578492     2A     -1.357032     3A     -0.714190
       4A     -0.589200     5A     -0.509835

  @DF-RHF Final Energy:   -76.04109421419726

   => Energetics <=

    Nuclear Repulsion Energy =              9.1794772988953657
    One-Electron Energy =                -122.9436439513701202
    Two-Electron Energy =                  37.7230724382774980
    Total Energy =                        -76.0410942141972583

  Dipole Moment: [D]
     X:    -2.0332      Y:    -0.0589      Z:    -0.0075     Total:     2.0341

    SAPT Results
  --------------------------------------------------------------------------------------------------------
    Electrostatics                 -0.39739996 [mEh]      -0.24937224 [kcal/mol]      -1.04337344 [kJ/mol]
      Elst10,r                     -0.50569955 [mEh]      -0.31733126 [kcal/mol]      -1.32771399 [kJ/mol]
      Elst12,r                      0.10829960 [mEh]       0.06795902 [kcal/mol]       0.28434055 [kJ/mol]

    Exchange                        0.00003437 [mEh]       0.00002157 [kcal/mol]       0.00009025 [kJ/mol]
      Exch10                        0.00002592 [mEh]       0.00001626 [kcal/mol]       0.00006804 [kJ/mol]
      Exch10(S^2)                   0.00002592 [mEh]       0.00001626 [kcal/mol]       0.00006804 [kJ/mol]
      Exch11(S^2)                  -0.00000071 [mEh]      -0.00000044 [kcal/mol]      -0.00000186 [kJ/mol]
      Exch12(S^2)                   0.00000917 [mEh]       0.00000575 [kcal/mol]       0.00002407 [kJ/mol]

    Induction                      -0.00950559 [mEh]      -0.00596485 [kcal/mol]      -0.02495691 [kJ/mol]
      Ind20,r                      -0.01004529 [mEh]      -0.00630351 [kcal/mol]      -0.02637389 [kJ/mol]
      Ind22                         0.00085497 [mEh]       0.00053650 [kcal/mol]       0.00224471 [kJ/mol]
      Exch-Ind20,r                  0.00002708 [mEh]       0.00001699 [kcal/mol]       0.00007109 [kJ/mol]
      Exch-Ind22                   -0.00000230 [mEh]      -0.00000145 [kcal/mol]      -0.00000605 [kJ/mol]
      delta HF,r (2)               -0.00034004 [mEh]      -0.00021338 [kcal/mol]      -0.00089278 [kJ/mol]

    Dispersion                     -0.03551276 [mEh]      -0.02228459 [kcal/mol]      -0.09323873 [kJ/mol]
      Disp20                       -0.03225141 [mEh]      -0.02023806 [kcal/mol]      -0.08467606 [kJ/mol]
      Disp21                        0.00478208 [mEh]       0.00300080 [kcal/mol]       0.01255534 [kJ/mol]
      Disp22 (SDQ)                 -0.00136278 [mEh]      -0.00085516 [kcal/mol]      -0.00357799 [kJ/mol]
      Disp22 (T)                   -0.00662885 [mEh]      -0.00415966 [kcal/mol]      -0.01740404 [kJ/mol]
      Est. Disp22 (T)              -0.00668478 [mEh]      -0.00419477 [kcal/mol]      -0.01755090 [kJ/mol]
      Exch-Disp20                   0.00000414 [mEh]       0.00000260 [kcal/mol]       0.00001087 [kJ/mol]

  Total HF                         -0.51603188 [mEh]      -0.32381490 [kcal/mol]      -1.35484153 [kJ/mol]
  Total SAPT0                      -0.54827915 [mEh]      -0.34405036 [kcal/mol]      -1.43950672 [kJ/mol]
  Total SAPT2                      -0.43911844 [mEh]      -0.27555098 [kcal/mol]      -1.15290530 [kJ/mol]
  Total SAPT2+                     -0.44238393 [mEh]      -0.27760010 [kcal/mol]      -1.16147884 [kJ/mol]

  Special recipe for scaled SAPT0 (see Manual):
    Electrostatics sSAPT0          -0.50569955 [mEh]      -0.31733126 [kcal/mol]      -1.32771399 [kJ/mol]
    Exchange sSAPT0                 0.00002592 [mEh]       0.00001626 [kcal/mol]       0.00006804 [kJ/mol]
    Induction sSAPT0               -0.01035825 [mEh]      -0.00649990 [kcal/mol]      -0.02719558 [kJ/mol]
    Dispersion sSAPT0              -0.03224727 [mEh]      -0.02023547 [kcal/mol]      -0.08466519 [kJ/mol]
  Total sSAPT0                     -0.54827915 [mEh]      -0.34405036 [kcal/mol]      -1.43950672 [kJ/mol]
  --------------------------------------------------------------------------------------------------------

*** Psi4 exiting successfully. Buy a developer a beer!
