                               Psi4 1.4a2.dev224

  ==> Input File <==

--------------------------------------------------------------------------
#Generated by lconvert.py for sapt job

memory 20 GB

molecule  {
0 1
 Cl       2.012920   -0.141110    0.000050
  C       0.280810   -0.072100    0.000010
  C      -0.357850    1.165540   -0.000030
  C      -0.451000   -1.257040    0.000010
  C      -1.749820    1.212160   -0.000060
  C      -1.842360   -1.196210   -0.000020
  C      -2.494930    0.034880   -0.000050
  H       0.231200    2.071140   -0.000030
  H       0.067210   -2.204960    0.000040
  H      -2.250000    2.170870   -0.000090
  H      -2.414680   -2.113650   -0.000020
  H      -3.575010    0.076430   -0.000080
--
0 1
  O       6.337520   -0.309190    0.000120
  H       6.597380    0.223450    0.754180
  H       6.597370    0.223430   -0.753960
units angstrom
no_reorient
symmetry c1
}

set {
scf_type DF
basis aug-cc-pvdz
freeze_core True
guess SAD
}
energy('sapt2+')
--------------------------------------------------------------------------

  //              Dimer HF             //
    Molecular point group: c1
  Charge       = 0
  Multiplicity = 1
  Basis Set: AUG-CC-PVDZ
    Blend: AUG-CC-PVDZ
  Basis Set: (AUG-CC-PVDZ AUX)
    Blend: AUG-CC-PVDZ-JKFIT
  @DF-RHF Final Energy:  -765.69116243282883
    Total Energy =                       -765.6911624328288326
  //            Monomer A HF           //
    Molecular point group: c1
  Multiplicity = 1
  Basis Set: AUG-CC-PVDZ
    Blend: AUG-CC-PVDZ
  Basis Set: (AUG-CC-PVDZ AUX)
    Blend: AUG-CC-PVDZ-JKFIT
  @DF-RHF Final Energy:  -689.65002276268706
    Total Energy =                       -689.6500227626870583
  //            Monomer B HF           //
    Molecular point group: c1

    Geometry (in Angstrom), charge = 0, multiplicity = 1:

       Center              X                  Y                   Z               Mass
    ------------   -----------------  -----------------  -----------------  -----------------
      Gh(CL)          1.261716587670    -0.058176006714     0.000034401107    34.968852682000
      Gh(C)          -0.470393412330     0.010833993286    -0.000005598893    12.000000000000
      Gh(C)          -1.109053412330     1.248473993286    -0.000045598893    12.000000000000
      Gh(C)          -1.202203412330    -1.174106006714    -0.000005598893    12.000000000000
      Gh(C)          -2.501023412330     1.295093993286    -0.000075598893    12.000000000000
      Gh(C)          -2.593563412330    -1.113276006714    -0.000035598893    12.000000000000
      Gh(C)          -3.246133412330     0.117813993286    -0.000065598893    12.000000000000
      Gh(H)          -0.520003412330     2.154073993286    -0.000045598893     1.007825032230
      Gh(H)          -0.683993412330    -2.122026006714     0.000024401107     1.007825032230
      Gh(H)          -3.001203412330     2.253803993286    -0.000105598893     1.007825032230
      Gh(H)          -3.165883412330    -2.030716006714    -0.000035598893     1.007825032230
      Gh(H)          -4.326213412330     0.159363993286    -0.000095598893     1.007825032230
         O            5.586316587670    -0.226256006714     0.000104401107    15.994914619570
         H            5.846176587670     0.306383993286     0.754164401107     1.007825032230
         H            5.846166587670     0.306363993286    -0.753975598893     1.007825032230

  Charge       = 0
  Multiplicity = 1
  Basis Set: AUG-CC-PVDZ
    Blend: AUG-CC-PVDZ
  Basis Set: (AUG-CC-PVDZ AUX)
    Blend: AUG-CC-PVDZ-JKFIT

    Orbital Energies [Eh]
    ---------------------

    Doubly Occupied:

       1A    -20.577967     2A     -1.356315     3A     -0.716639
       4A     -0.586964     5A     -0.509530

  @DF-RHF Final Energy:   -76.04126531093233

   => Energetics <=

    Nuclear Repulsion Energy =              9.1789301325110788
    One-Electron Energy =                -122.9455581943236382
    Two-Electron Energy =                  37.7253627508802154
    Total Energy =                        -76.0412653109323458

  Dipole Moment: [D]
     X:     0.8792      Y:     1.8125      Z:    -0.0000     Total:     2.0145

    SAPT Results
  --------------------------------------------------------------------------------------------------------
    Electrostatics                  0.06363842 [mEh]       0.03993371 [kcal/mol]       0.16708266 [kJ/mol]
      Elst10,r                      0.13729486 [mEh]       0.08615383 [kcal/mol]       0.36046761 [kJ/mol]
      Elst12,r                     -0.07365644 [mEh]      -0.04622011 [kcal/mol]      -0.19338496 [kJ/mol]

    Exchange                        0.06169350 [mEh]       0.03871326 [kcal/mol]       0.16197626 [kJ/mol]
      Exch10                        0.04374987 [mEh]       0.02745346 [kcal/mol]       0.11486528 [kJ/mol]
      Exch10(S^2)                   0.04374788 [mEh]       0.02745221 [kcal/mol]       0.11486004 [kJ/mol]
      Exch11(S^2)                  -0.00109509 [mEh]      -0.00068718 [kcal/mol]      -0.00287515 [kJ/mol]
      Exch12(S^2)                   0.01903871 [mEh]       0.01194697 [kcal/mol]       0.04998613 [kJ/mol]

    Induction                      -0.05962849 [mEh]      -0.03741744 [kcal/mol]      -0.15655458 [kJ/mol]
      Ind20,r                      -0.06456374 [mEh]      -0.04051436 [kcal/mol]      -0.16951207 [kJ/mol]
      Ind22                        -0.00518947 [mEh]      -0.00325644 [kcal/mol]      -0.01362495 [kJ/mol]
      Exch-Ind20,r                  0.01200491 [mEh]       0.00753320 [kcal/mol]       0.03151890 [kJ/mol]
      Exch-Ind22                    0.00096492 [mEh]       0.00060550 [kcal/mol]       0.00253341 [kJ/mol]
      delta HF,r (2)               -0.00284512 [mEh]      -0.00178534 [kcal/mol]      -0.00746987 [kJ/mol]

    Dispersion                     -0.32355998 [mEh]      -0.20303695 [kcal/mol]      -0.84950662 [kJ/mol]
      Disp20                       -0.30554328 [mEh]      -0.19173131 [kcal/mol]      -0.80220378 [kJ/mol]
      Disp21                        0.03565043 [mEh]       0.02237098 [kcal/mol]       0.09360018 [kJ/mol]
      Disp22 (SDQ)                 -0.00555700 [mEh]      -0.00348707 [kcal/mol]      -0.01458991 [kJ/mol]
      Disp22 (T)                   -0.05077736 [mEh]      -0.03186327 [kcal/mol]      -0.13331593 [kJ/mol]
      Est. Disp22 (T)              -0.05319764 [mEh]      -0.03338203 [kcal/mol]      -0.13967040 [kJ/mol]
      Exch-Disp20                   0.00508752 [mEh]       0.00319247 [kcal/mol]       0.01335729 [kJ/mol]

  Total HF                          0.12564079 [mEh]       0.07884079 [kcal/mol]       0.32986985 [kJ/mol]
  Total SAPT0                      -0.17481497 [mEh]      -0.10969805 [kcal/mol]      -0.45897664 [kJ/mol]
  Total SAPT2                      -0.23475233 [mEh]      -0.14730931 [kcal/mol]      -0.61634216 [kJ/mol]
  Total SAPT2+                     -0.25785655 [mEh]      -0.16180743 [kcal/mol]      -0.67700229 [kJ/mol]

  Special recipe for scaled SAPT0 (see Manual):
    Electrostatics sSAPT0           0.13729486 [mEh]       0.08615383 [kcal/mol]       0.36046761 [kJ/mol]
    Exchange sSAPT0                 0.04374987 [mEh]       0.02745346 [kcal/mol]       0.11486528 [kJ/mol]
    Induction sSAPT0               -0.05540230 [mEh]      -0.03476547 [kcal/mol]      -0.14545873 [kJ/mol]
    Dispersion sSAPT0              -0.30045506 [mEh]      -0.18853840 [kcal/mol]      -0.78884466 [kJ/mol]
  Total sSAPT0                     -0.17481263 [mEh]      -0.10969658 [kcal/mol]      -0.45897050 [kJ/mol]
  --------------------------------------------------------------------------------------------------------

*** Psi4 exiting successfully. Buy a developer a beer!
