                               Psi4 1.4a2.dev224

  ==> Input File <==

--------------------------------------------------------------------------
#Generated by lconvert.py for sapt job

memory 20 GB

molecule  {
0 1
 Cl       2.012920   -0.141110    0.000050
  C       0.280810   -0.072100    0.000010
  C      -0.357850    1.165540   -0.000030
  C      -0.451000   -1.257040    0.000010
  C      -1.749820    1.212160   -0.000060
  C      -1.842360   -1.196210   -0.000020
  C      -2.494930    0.034880   -0.000050
  H       0.231200    2.071140   -0.000030
  H       0.067210   -2.204960    0.000040
  H      -2.250000    2.170870   -0.000090
  H      -2.414680   -2.113650   -0.000020
  H      -3.575010    0.076430   -0.000080
--
0 1
  O       7.335510   -0.347980    0.000140
  H       7.595370    0.184660    0.754200
  H       7.595360    0.184650   -0.753940
units angstrom
no_reorient
symmetry c1
}

set {
scf_type DF
basis aug-cc-pvdz
freeze_core True
guess SAD
}
energy('sapt2+')
--------------------------------------------------------------------------

  //              Dimer HF             //
    Molecular point group: c1
  Charge       = 0
  Multiplicity = 1
  Basis Set: AUG-CC-PVDZ
    Blend: AUG-CC-PVDZ
  Basis Set: (AUG-CC-PVDZ AUX)
    Blend: AUG-CC-PVDZ-JKFIT
  @DF-RHF Final Energy:  -765.69109915342437
    Total Energy =                       -765.6910991534243749
  //            Monomer A HF           //
    Molecular point group: c1
  Multiplicity = 1
  Basis Set: AUG-CC-PVDZ
    Blend: AUG-CC-PVDZ
  Basis Set: (AUG-CC-PVDZ AUX)
    Blend: AUG-CC-PVDZ-JKFIT
  @DF-RHF Final Energy:  -689.64999786235546
    Total Energy =                       -689.6499978623554625
  //            Monomer B HF           //
    Molecular point group: c1

    Geometry (in Angstrom), charge = 0, multiplicity = 1:

       Center              X                  Y                   Z               Mass
    ------------   -----------------  -----------------  -----------------  -----------------
      Gh(CL)          1.123471971944    -0.052802775233     0.000031630646    34.968852682000
      Gh(C)          -0.608638028056     0.016207224767    -0.000008369354    12.000000000000
      Gh(C)          -1.247298028056     1.253847224767    -0.000048369354    12.000000000000
      Gh(C)          -1.340448028056    -1.168732775233    -0.000008369354    12.000000000000
      Gh(C)          -2.639268028056     1.300467224767    -0.000078369354    12.000000000000
      Gh(C)          -2.731808028056    -1.107902775233    -0.000038369354    12.000000000000
      Gh(C)          -3.384378028056     0.123187224767    -0.000068369354    12.000000000000
      Gh(H)          -0.658248028056     2.159447224767    -0.000048369354     1.007825032230
      Gh(H)          -0.822238028056    -2.116652775233     0.000021630646     1.007825032230
      Gh(H)          -3.139448028056     2.259177224767    -0.000108369354     1.007825032230
      Gh(H)          -3.304128028056    -2.025342775233    -0.000038369354     1.007825032230
      Gh(H)          -4.464458028056     0.164737224767    -0.000098369354     1.007825032230
         O            6.446061971944    -0.259672775233     0.000121630646    15.994914619570
         H            6.705921971944     0.272967224767     0.754181630646     1.007825032230
         H            6.705911971944     0.272957224767    -0.753958369354     1.007825032230

  Charge       = 0
  Multiplicity = 1
  Basis Set: AUG-CC-PVDZ
    Blend: AUG-CC-PVDZ
  Basis Set: (AUG-CC-PVDZ AUX)
    Blend: AUG-CC-PVDZ-JKFIT

    Orbital Energies [Eh]
    ---------------------

    Doubly Occupied:

       1A    -20.577966     2A     -1.356308     3A     -0.716634
       4A     -0.586961     5A     -0.509531

  @DF-RHF Final Energy:   -76.04125406040720

   => Energetics <=

    Nuclear Repulsion Energy =              9.1789045738482429
    One-Electron Energy =                -122.9455141381964580
    Two-Electron Energy =                  37.7253555039410315
    Total Energy =                        -76.0412540604071836

  Dipole Moment: [D]
     X:     0.8801      Y:     1.8122      Z:    -0.0000     Total:     2.0146

    SAPT Results
  --------------------------------------------------------------------------------------------------------
    Electrostatics                  0.12276357 [mEh]       0.07703531 [kcal/mol]       0.32231572 [kJ/mol]
      Elst10,r                      0.16743775 [mEh]       0.10506878 [kcal/mol]       0.43960776 [kJ/mol]
      Elst12,r                     -0.04467418 [mEh]      -0.02803347 [kcal/mol]      -0.11729204 [kJ/mol]

    Exchange                        0.00175872 [mEh]       0.00110361 [kcal/mol]       0.00461752 [kJ/mol]
      Exch10                        0.00113185 [mEh]       0.00071025 [kcal/mol]       0.00297167 [kJ/mol]
      Exch10(S^2)                   0.00113185 [mEh]       0.00071025 [kcal/mol]       0.00297167 [kJ/mol]
      Exch11(S^2)                  -0.00005205 [mEh]      -0.00003266 [kcal/mol]      -0.00013664 [kJ/mol]
      Exch12(S^2)                   0.00067891 [mEh]       0.00042602 [kcal/mol]       0.00178249 [kJ/mol]

    Induction                      -0.01498685 [mEh]      -0.00940439 [kcal/mol]      -0.03934797 [kJ/mol]
      Ind20,r                      -0.01601875 [mEh]      -0.01005192 [kcal/mol]      -0.04205721 [kJ/mol]
      Ind22                         0.00083173 [mEh]       0.00052192 [kcal/mol]       0.00218370 [kJ/mol]
      Exch-Ind20,r                  0.00035270 [mEh]       0.00022132 [kcal/mol]       0.00092602 [kJ/mol]
      Exch-Ind22                   -0.00001831 [mEh]      -0.00001149 [kcal/mol]      -0.00004808 [kJ/mol]
      delta HF,r (2)               -0.00013422 [mEh]      -0.00008422 [kcal/mol]      -0.00035239 [kJ/mol]

    Dispersion                     -0.09567726 [mEh]      -0.06003838 [kcal/mol]      -0.25120060 [kJ/mol]
      Disp20                       -0.09042244 [mEh]      -0.05674094 [kcal/mol]      -0.23740409 [kJ/mol]
      Disp21                        0.01163859 [mEh]       0.00730333 [kcal/mol]       0.03055712 [kJ/mol]
      Disp22 (SDQ)                 -0.00085865 [mEh]      -0.00053881 [kcal/mol]      -0.00225438 [kJ/mol]
      Disp22 (T)                   -0.01582089 [mEh]      -0.00992776 [kcal/mol]      -0.04153775 [kJ/mol]
      Est. Disp22 (T)              -0.01620070 [mEh]      -0.01016609 [kcal/mol]      -0.04253494 [kJ/mol]
      Exch-Disp20                   0.00016594 [mEh]       0.00010413 [kcal/mol]       0.00043568 [kJ/mol]

  Total HF                          0.15276934 [mEh]       0.09586421 [kcal/mol]       0.40109584 [kJ/mol]
  Total SAPT0                       0.06251284 [mEh]       0.03922740 [kcal/mol]       0.16412743 [kJ/mol]
  Total SAPT2                       0.01927894 [mEh]       0.01209772 [kcal/mol]       0.05061686 [kJ/mol]
  Total SAPT2+                      0.01385819 [mEh]       0.00869614 [kcal/mol]       0.03638466 [kJ/mol]

  Special recipe for scaled SAPT0 (see Manual):
    Electrostatics sSAPT0           0.16743775 [mEh]       0.10506878 [kcal/mol]       0.43960776 [kJ/mol]
    Exchange sSAPT0                 0.00113185 [mEh]       0.00071025 [kcal/mol]       0.00297167 [kJ/mol]
    Induction sSAPT0               -0.01580026 [mEh]      -0.00991482 [kcal/mol]      -0.04148359 [kJ/mol]
    Dispersion sSAPT0              -0.09025650 [mEh]      -0.05663681 [kcal/mol]      -0.23696841 [kJ/mol]
  Total sSAPT0                      0.06251284 [mEh]       0.03922740 [kcal/mol]       0.16412743 [kJ/mol]
  --------------------------------------------------------------------------------------------------------

*** Psi4 exiting successfully. Buy a developer a beer!
