                               Psi4 1.4a2.dev224

  ==> Input File <==

--------------------------------------------------------------------------
#Generated by lconvert.py for sapt job

memory 20 GB

molecule  {
0 1
 Cl       2.012920   -0.141110    0.000050
  C       0.280810   -0.072100    0.000010
  C      -0.357850    1.165540   -0.000030
  C      -0.451000   -1.257040    0.000010
  C      -1.749820    1.212160   -0.000060
  C      -1.842360   -1.196210   -0.000020
  C      -2.494930    0.034880   -0.000050
  H       0.231200    2.071140   -0.000030
  H       0.067210   -2.204960    0.000040
  H      -2.250000    2.170870   -0.000090
  H      -2.414680   -2.113650   -0.000020
  H      -3.575010    0.076430   -0.000080
--
0 1
  O       8.333500   -0.386760    0.000160
  H       8.593350    0.145880    0.754220
  H       8.593340    0.145860   -0.753920
units angstrom
no_reorient
symmetry c1
}

set {
scf_type DF
basis aug-cc-pvdz
freeze_core True
guess SAD
}
energy('sapt2+')
--------------------------------------------------------------------------

  //              Dimer HF             //
    Molecular point group: c1
  Charge       = 0
  Multiplicity = 1
  Basis Set: AUG-CC-PVDZ
    Blend: AUG-CC-PVDZ
  Basis Set: (AUG-CC-PVDZ AUX)
    Blend: AUG-CC-PVDZ-JKFIT
  @DF-RHF Final Energy:  -765.69110669680811
    Total Energy =                       -765.6911066968081059
  //            Monomer A HF           //
    Molecular point group: c1
  Multiplicity = 1
  Basis Set: AUG-CC-PVDZ
    Blend: AUG-CC-PVDZ
  Basis Set: (AUG-CC-PVDZ AUX)
    Blend: AUG-CC-PVDZ-JKFIT
  @DF-RHF Final Energy:  -689.64998613398666
    Total Energy =                       -689.6499861339866584
  //            Monomer B HF           //
    Molecular point group: c1

    Geometry (in Angstrom), charge = 0, multiplicity = 1:

       Center              X                  Y                   Z               Mass
    ------------   -----------------  -----------------  -----------------  -----------------
      Gh(CL)          0.985227511245    -0.047430773954     0.000028860185    34.968852682000
      Gh(C)          -0.746882488755     0.021579226046    -0.000011139815    12.000000000000
      Gh(C)          -1.385542488755     1.259219226046    -0.000051139815    12.000000000000
      Gh(C)          -1.478692488755    -1.163360773954    -0.000011139815    12.000000000000
      Gh(C)          -2.777512488755     1.305839226046    -0.000081139815    12.000000000000
      Gh(C)          -2.870052488755    -1.102530773954    -0.000041139815    12.000000000000
      Gh(C)          -3.522622488755     0.128559226046    -0.000071139815    12.000000000000
      Gh(H)          -0.796492488755     2.164819226046    -0.000051139815     1.007825032230
      Gh(H)          -0.960482488755    -2.111280773954     0.000018860185     1.007825032230
      Gh(H)          -3.277692488755     2.264549226046    -0.000111139815     1.007825032230
      Gh(H)          -3.442372488755    -2.019970773954    -0.000041139815     1.007825032230
      Gh(H)          -4.602702488755     0.170109226046    -0.000101139815     1.007825032230
         O            7.305807511245    -0.293080773954     0.000138860185    15.994914619570
         H            7.565657511245     0.239559226046     0.754198860185     1.007825032230
         H            7.565647511245     0.239539226046    -0.753941139815     1.007825032230

  Charge       = 0
  Multiplicity = 1
  Basis Set: AUG-CC-PVDZ
    Blend: AUG-CC-PVDZ
  Basis Set: (AUG-CC-PVDZ AUX)
    Blend: AUG-CC-PVDZ-JKFIT

    Orbital Energies [Eh]
    ---------------------

    Doubly Occupied:

       1A    -20.577957     2A     -1.356302     3A     -0.716631
       4A     -0.586955     5A     -0.509527

  @DF-RHF Final Energy:   -76.04124782816457

   => Energetics <=

    Nuclear Repulsion Energy =              9.1789550713712664
    One-Electron Energy =                -122.9456622730911732
    Two-Electron Energy =                  37.7254593735553385
    Total Energy =                        -76.0412478281645718

  Dipole Moment: [D]
     X:     0.8815      Y:     1.8112      Z:    -0.0000     Total:     2.0143

    SAPT Results
  --------------------------------------------------------------------------------------------------------
    Electrostatics                  0.10316812 [mEh]       0.06473897 [kcal/mol]       0.27086787 [kJ/mol]
      Elst10,r                      0.13350782 [mEh]       0.08377742 [kcal/mol]       0.35052472 [kJ/mol]
      Elst12,r                     -0.03033969 [mEh]      -0.01903845 [kcal/mol]      -0.07965686 [kJ/mol]

    Exchange                        0.00005628 [mEh]       0.00003532 [kcal/mol]       0.00014776 [kJ/mol]
      Exch10                        0.00003559 [mEh]       0.00002233 [kcal/mol]       0.00009345 [kJ/mol]
      Exch10(S^2)                   0.00003559 [mEh]       0.00002233 [kcal/mol]       0.00009345 [kJ/mol]
      Exch11(S^2)                  -0.00000156 [mEh]      -0.00000098 [kcal/mol]      -0.00000411 [kJ/mol]
      Exch12(S^2)                   0.00002225 [mEh]       0.00001396 [kcal/mol]       0.00005842 [kJ/mol]

    Induction                      -0.00585828 [mEh]      -0.00367612 [kcal/mol]      -0.01538091 [kJ/mol]
      Ind20,r                      -0.00598597 [mEh]      -0.00375625 [kcal/mol]      -0.01571616 [kJ/mol]
      Ind22                         0.00042168 [mEh]       0.00026461 [kcal/mol]       0.00110713 [kJ/mol]
      Exch-Ind20,r                  0.00002690 [mEh]       0.00001688 [kcal/mol]       0.00007062 [kJ/mol]
      Exch-Ind22                   -0.00000189 [mEh]      -0.00000119 [kcal/mol]      -0.00000498 [kJ/mol]
      delta HF,r (2)               -0.00031899 [mEh]      -0.00020017 [kcal/mol]      -0.00083752 [kJ/mol]

    Dispersion                     -0.03630400 [mEh]      -0.02278110 [kcal/mol]      -0.09531613 [kJ/mol]
      Disp20                       -0.03447222 [mEh]      -0.02163165 [kcal/mol]      -0.09050681 [kJ/mol]
      Disp21                        0.00468366 [mEh]       0.00293904 [kcal/mol]       0.01229695 [kJ/mol]
      Disp22 (SDQ)                 -0.00016338 [mEh]      -0.00010253 [kcal/mol]      -0.00042897 [kJ/mol]
      Disp22 (T)                   -0.00628467 [mEh]      -0.00394369 [kcal/mol]      -0.01650039 [kJ/mol]
      Est. Disp22 (T)              -0.00635844 [mEh]      -0.00398998 [kcal/mol]      -0.01669409 [kJ/mol]
      Exch-Disp20                   0.00000639 [mEh]       0.00000401 [kcal/mol]       0.00001678 [kJ/mol]

  Total HF                          0.12726534 [mEh]       0.07986021 [kcal/mol]       0.33413511 [kJ/mol]
  Total SAPT0                       0.09279951 [mEh]       0.05823257 [kcal/mol]       0.24364508 [kJ/mol]
  Total SAPT2                       0.06290029 [mEh]       0.03947053 [kcal/mol]       0.16514469 [kJ/mol]
  Total SAPT2+                      0.06106213 [mEh]       0.03831706 [kcal/mol]       0.16031859 [kJ/mol]

  Special recipe for scaled SAPT0 (see Manual):
    Electrostatics sSAPT0           0.13350782 [mEh]       0.08377742 [kcal/mol]       0.35052472 [kJ/mol]
    Exchange sSAPT0                 0.00003559 [mEh]       0.00002233 [kcal/mol]       0.00009345 [kJ/mol]
    Induction sSAPT0               -0.00627807 [mEh]      -0.00393955 [kcal/mol]      -0.01648306 [kJ/mol]
    Dispersion sSAPT0              -0.03446583 [mEh]      -0.02162764 [kcal/mol]      -0.09049003 [kJ/mol]
  Total sSAPT0                      0.09279951 [mEh]       0.05823257 [kcal/mol]       0.24364508 [kJ/mol]
  --------------------------------------------------------------------------------------------------------

*** Psi4 exiting successfully. Buy a developer a beer!
