                               Psi4 1.4a2.dev224

  ==> Input File <==

--------------------------------------------------------------------------
#Generated by lconvert.py for sapt job

memory 20 GB

molecule  {
0 1
 Br       2.119600   -0.131360    0.000050
  C       0.238170   -0.065000    0.000010
  C      -0.407250    1.169610   -0.000030
  C      -0.490340   -1.252500    0.000010
  C      -1.799760    1.210440   -0.000060
  C      -1.882340   -1.197580   -0.000020
  C      -2.540580    0.030440   -0.000060
  H       0.173020    2.080980   -0.000030
  H       0.026310   -2.201380    0.000040
  H      -2.302820    2.167800   -0.000090
  H      -2.449800   -2.118200   -0.000010
  H      -3.620870    0.067510   -0.000080
--
0 1
  O       6.331040   -0.213640    0.000120
  H       6.758030    0.197960    0.754200
  H       6.758030    0.197960   -0.753970
units angstrom
no_reorient
symmetry c1
}

set {
scf_type DF
basis aug-cc-pvdz
freeze_core True
guess SAD
}
energy('sapt2+')
--------------------------------------------------------------------------

  //              Dimer HF             //
    Molecular point group: c1
  Charge       = 0
  Multiplicity = 1
  Basis Set: AUG-CC-PVDZ
    Blend: AUG-CC-PVDZ
  Basis Set: (AUG-CC-PVDZ AUX)
    Blend: AUG-CC-PVDZ-JKFIT
  @DF-RHF Final Energy: -2877.89825554457730
    Total Energy =                      -2877.8982555445772960
  //            Monomer A HF           //
    Molecular point group: c1
  Multiplicity = 1
  Basis Set: AUG-CC-PVDZ
    Blend: AUG-CC-PVDZ
  Basis Set: (AUG-CC-PVDZ AUX)
    Blend: AUG-CC-PVDZ-JKFIT
  @DF-RHF Final Energy: -2801.85690306907100
    Total Energy =                      -2801.8569030690709951
  //            Monomer B HF           //
    Molecular point group: c1

    Geometry (in Angstrom), charge = 0, multiplicity = 1:

       Center              X                  Y                   Z               Mass
    ------------   -----------------  -----------------  -----------------  -----------------
      Gh(BR)          1.019752769566    -0.047187958395     0.000026284285    78.918337600000
      Gh(C)          -0.861677230434     0.019172041605    -0.000013715715    12.000000000000
      Gh(C)          -1.507097230434     1.253782041605    -0.000053715715    12.000000000000
      Gh(C)          -1.590187230434    -1.168327958395    -0.000013715715    12.000000000000
      Gh(C)          -2.899607230434     1.294612041605    -0.000083715715    12.000000000000
      Gh(C)          -2.982187230434    -1.113407958395    -0.000043715715    12.000000000000
      Gh(C)          -3.640427230434     0.114612041605    -0.000083715715    12.000000000000
      Gh(H)          -0.926827230434     2.165152041605    -0.000053715715     1.007825032230
      Gh(H)          -1.073537230434    -2.117207958395     0.000016284285     1.007825032230
      Gh(H)          -3.402667230434     2.251972041605    -0.000113715715     1.007825032230
      Gh(H)          -3.549647230434    -2.034027958395    -0.000033715715     1.007825032230
      Gh(H)          -4.720717230434     0.151682041605    -0.000103715715     1.007825032230
         O            5.231192769566    -0.129467958395     0.000096284285    15.994914619570
         H            5.658182769566     0.282132041605     0.754176284285     1.007825032230
         H            5.658182769566     0.282132041605    -0.753993715715     1.007825032230

  Charge       = 0
  Multiplicity = 1
  Basis Set: AUG-CC-PVDZ
    Blend: AUG-CC-PVDZ
  Basis Set: (AUG-CC-PVDZ AUX)
    Blend: AUG-CC-PVDZ-JKFIT

    Orbital Energies [Eh]
    ---------------------

    Doubly Occupied:

       1A    -20.578037     2A     -1.356210     3A     -0.716413
       4A     -0.586994     5A     -0.509520

  @DF-RHF Final Energy:   -76.04126593248147

   => Energetics <=

    Nuclear Repulsion Energy =              9.1763411347963189
    One-Electron Energy =                -122.9408660820422909
    Two-Electron Energy =                  37.7232590147645084
    Total Energy =                        -76.0412659324814655

  Dipole Moment: [D]
     X:     1.4483      Y:     1.4018      Z:    -0.0000     Total:     2.0156

    SAPT Results
  --------------------------------------------------------------------------------------------------------
    Electrostatics                 -0.17169567 [mEh]      -0.10774066 [kcal/mol]      -0.45078693 [kJ/mol]
      Elst10,r                     -0.06132456 [mEh]      -0.03848175 [kcal/mol]      -0.16100762 [kJ/mol]
      Elst12,r                     -0.11037111 [mEh]      -0.06925892 [kcal/mol]      -0.28977931 [kJ/mol]

    Exchange                        0.12400207 [mEh]       0.07781247 [kcal/mol]       0.32556739 [kJ/mol]
      Exch10                        0.09195981 [mEh]       0.05770565 [kcal/mol]       0.24144044 [kJ/mol]
      Exch10(S^2)                   0.09195181 [mEh]       0.05770063 [kcal/mol]       0.24141943 [kJ/mol]
      Exch11(S^2)                  -0.00175841 [mEh]      -0.00110342 [kcal/mol]      -0.00461670 [kJ/mol]
      Exch12(S^2)                   0.03380067 [mEh]       0.02121024 [kcal/mol]       0.08874365 [kJ/mol]

    Induction                      -0.12665754 [mEh]      -0.07947881 [kcal/mol]      -0.33253934 [kJ/mol]
      Ind20,r                      -0.13723489 [mEh]      -0.08611619 [kcal/mol]      -0.36031015 [kJ/mol]
      Ind22                        -0.01233239 [mEh]      -0.00773869 [kcal/mol]      -0.03237869 [kJ/mol]
      Exch-Ind20,r                  0.03174947 [mEh]       0.01992309 [kcal/mol]       0.08335821 [kJ/mol]
      Exch-Ind22                    0.00285311 [mEh]       0.00179036 [kcal/mol]       0.00749085 [kJ/mol]
      delta HF,r (2)               -0.01169284 [mEh]      -0.00733737 [kcal/mol]      -0.03069956 [kJ/mol]

    Dispersion                     -0.46410920 [mEh]      -0.29123292 [kcal/mol]      -1.21851854 [kJ/mol]
      Disp20                       -0.44659849 [mEh]      -0.28024478 [kcal/mol]      -1.17254416 [kJ/mol]
      Disp21                        0.05746129 [mEh]       0.03605751 [kcal/mol]       0.15086461 [kJ/mol]
      Disp22 (SDQ)                 -0.00954569 [mEh]      -0.00599001 [kcal/mol]      -0.02506221 [kJ/mol]
      Disp22 (T)                   -0.07288662 [mEh]      -0.04573704 [kcal/mol]      -0.19136379 [kJ/mol]
      Est. Disp22 (T)              -0.07617859 [mEh]      -0.04780278 [kcal/mol]      -0.20000685 [kJ/mol]
      Exch-Disp20                   0.01075227 [mEh]       0.00674715 [kcal/mol]       0.02823007 [kJ/mol]

  Total HF                         -0.08654302 [mEh]      -0.05430657 [kcal/mol]      -0.22721868 [kJ/mol]
  Total SAPT0                      -0.52238924 [mEh]      -0.32780420 [kcal/mol]      -1.37153277 [kJ/mol]
  Total SAPT2                      -0.61019737 [mEh]      -0.38290463 [kcal/mol]      -1.60207297 [kJ/mol]
  Total SAPT2+                     -0.63846035 [mEh]      -0.40063992 [kcal/mol]      -1.67627741 [kJ/mol]

  Special recipe for scaled SAPT0 (see Manual):
    Electrostatics sSAPT0          -0.06132456 [mEh]      -0.03848175 [kcal/mol]      -0.16100762 [kJ/mol]
    Exchange sSAPT0                 0.09195981 [mEh]       0.05770565 [kcal/mol]       0.24144044 [kJ/mol]
    Induction sSAPT0               -0.11716998 [mEh]      -0.07352527 [kcal/mol]      -0.30762974 [kJ/mol]
    Dispersion sSAPT0              -0.43584341 [mEh]      -0.27349587 [kcal/mol]      -1.14430672 [kJ/mol]
  Total sSAPT0                     -0.52237815 [mEh]      -0.32779724 [kcal/mol]      -1.37150364 [kJ/mol]
  --------------------------------------------------------------------------------------------------------

*** Psi4 exiting successfully. Buy a developer a beer!
