                               Psi4 1.4a2.dev224

  ==> Input File <==

--------------------------------------------------------------------------
#Generated by lconvert.py for sapt job

memory 20 GB

molecule  {
0 1
 Br       2.119600   -0.131360    0.000050
  C       0.238170   -0.065000    0.000010
  C      -0.407250    1.169610   -0.000030
  C      -0.490340   -1.252500    0.000010
  C      -1.799760    1.210440   -0.000060
  C      -1.882340   -1.197580   -0.000020
  C      -2.540580    0.030440   -0.000060
  H       0.173020    2.080980   -0.000030
  H       0.026310   -2.201380    0.000040
  H      -2.302820    2.167800   -0.000090
  H      -2.449800   -2.118200   -0.000010
  H      -3.620870    0.067510   -0.000080
--
0 1
  O       8.274790   -0.251610    0.000150
  H       8.701780    0.159980    0.754230
  H       8.701770    0.159980   -0.753940
units angstrom
no_reorient
symmetry c1
}

set {
scf_type DF
basis aug-cc-pvdz
freeze_core True
guess SAD
}
energy('sapt2+')
--------------------------------------------------------------------------

  //              Dimer HF             //
    Molecular point group: c1
  Charge       = 0
  Multiplicity = 1
  Basis Set: AUG-CC-PVDZ
    Blend: AUG-CC-PVDZ
  Basis Set: (AUG-CC-PVDZ AUX)
    Blend: AUG-CC-PVDZ-JKFIT
  @DF-RHF Final Energy: -2877.89794908456270
    Total Energy =                      -2877.8979490845622422
  //            Monomer A HF           //
    Molecular point group: c1
  Multiplicity = 1
  Basis Set: AUG-CC-PVDZ
    Blend: AUG-CC-PVDZ
  Basis Set: (AUG-CC-PVDZ AUX)
    Blend: AUG-CC-PVDZ-JKFIT
  @DF-RHF Final Energy: -2801.85685041864690
    Total Energy =                      -2801.8568504186468999
  //            Monomer B HF           //
    Molecular point group: c1

    Geometry (in Angstrom), charge = 0, multiplicity = 1:

       Center              X                  Y                   Z               Mass
    ------------   -----------------  -----------------  -----------------  -----------------
      Gh(BR)          0.818520246898    -0.043256883774     0.000023178445    78.918337600000
      Gh(C)          -1.062909753102     0.023103116226    -0.000016821555    12.000000000000
      Gh(C)          -1.708329753102     1.257713116226    -0.000056821555    12.000000000000
      Gh(C)          -1.791419753102    -1.164396883774    -0.000016821555    12.000000000000
      Gh(C)          -3.100839753102     1.298543116226    -0.000086821555    12.000000000000
      Gh(C)          -3.183419753102    -1.109476883774    -0.000046821555    12.000000000000
      Gh(C)          -3.841659753102     0.118543116226    -0.000086821555    12.000000000000
      Gh(H)          -1.128059753102     2.169083116226    -0.000056821555     1.007825032230
      Gh(H)          -1.274769753102    -2.113276883774     0.000013178445     1.007825032230
      Gh(H)          -3.603899753102     2.255903116226    -0.000116821555     1.007825032230
      Gh(H)          -3.750879753102    -2.030096883774    -0.000036821555     1.007825032230
      Gh(H)          -4.921949753102     0.155613116226    -0.000106821555     1.007825032230
         O            6.973710246898    -0.163506883774     0.000123178445    15.994914619570
         H            7.400700246898     0.248083116226     0.754203178445     1.007825032230
         H            7.400690246898     0.248083116226    -0.753966821555     1.007825032230

  Charge       = 0
  Multiplicity = 1
  Basis Set: AUG-CC-PVDZ
    Blend: AUG-CC-PVDZ
  Basis Set: (AUG-CC-PVDZ AUX)
    Blend: AUG-CC-PVDZ-JKFIT

    Orbital Energies [Eh]
    ---------------------

    Doubly Occupied:

       1A    -20.578025     2A     -1.356190     3A     -0.716404
       4A     -0.586983     5A     -0.509515

  @DF-RHF Final Energy:   -76.04123087549583

   => Energetics <=

    Nuclear Repulsion Energy =              9.1764010745278153
    One-Electron Energy =                -122.9410296773353366
    Two-Electron Energy =                  37.7233977273116921
    Total Energy =                        -76.0412308754958275

  Dipole Moment: [D]
     X:     1.4492      Y:     1.3997      Z:    -0.0000     Total:     2.0148

    SAPT Results
  --------------------------------------------------------------------------------------------------------
    Electrostatics                  0.09539610 [mEh]       0.05986196 [kcal/mol]       0.25046243 [kJ/mol]
      Elst10,r                      0.15077133 [mEh]       0.09461044 [kcal/mol]       0.39585008 [kJ/mol]
      Elst12,r                     -0.05537523 [mEh]      -0.03474848 [kcal/mol]      -0.14538766 [kJ/mol]

    Exchange                        0.00011728 [mEh]       0.00007359 [kcal/mol]       0.00030791 [kJ/mol]
      Exch10                        0.00007855 [mEh]       0.00004929 [kcal/mol]       0.00020623 [kJ/mol]
      Exch10(S^2)                   0.00007855 [mEh]       0.00004929 [kcal/mol]       0.00020623 [kJ/mol]
      Exch11(S^2)                  -0.00000473 [mEh]      -0.00000297 [kcal/mol]      -0.00001242 [kJ/mol]
      Exch12(S^2)                   0.00004346 [mEh]       0.00002727 [kcal/mol]       0.00011411 [kJ/mol]

    Induction                      -0.01764293 [mEh]      -0.01107111 [kcal/mol]      -0.04632151 [kJ/mol]
      Ind20,r                      -0.01230742 [mEh]      -0.00772303 [kcal/mol]      -0.03231314 [kJ/mol]
      Ind22                         0.00100025 [mEh]       0.00062766 [kcal/mol]       0.00262614 [kJ/mol]
      Exch-Ind20,r                  0.00003540 [mEh]       0.00002221 [kcal/mol]       0.00009294 [kJ/mol]
      Exch-Ind22                   -0.00000288 [mEh]      -0.00000181 [kcal/mol]      -0.00000755 [kJ/mol]
      delta HF,r (2)               -0.00636828 [mEh]      -0.00399615 [kcal/mol]      -0.01671991 [kJ/mol]

    Dispersion                     -0.04988774 [mEh]      -0.03130503 [kcal/mol]      -0.13098025 [kJ/mol]
      Disp20                       -0.04793931 [mEh]      -0.03008237 [kcal/mol]      -0.12586465 [kJ/mol]
      Disp21                        0.00711863 [mEh]       0.00446701 [kcal/mol]       0.01868995 [kJ/mol]
      Disp22 (SDQ)                 -0.00042604 [mEh]      -0.00026735 [kcal/mol]      -0.00111857 [kJ/mol]
      Disp22 (T)                   -0.00855061 [mEh]      -0.00536559 [kcal/mol]      -0.02244961 [kJ/mol]
      Est. Disp22 (T)              -0.00865830 [mEh]      -0.00543317 [kcal/mol]      -0.02273237 [kJ/mol]
      Exch-Disp20                   0.00001729 [mEh]       0.00001085 [kcal/mol]       0.00004539 [kJ/mol]

  Total HF                          0.13220958 [mEh]       0.08296276 [kcal/mol]       0.34711620 [kJ/mol]
  Total SAPT0                       0.08428755 [mEh]       0.05289124 [kcal/mol]       0.22129694 [kJ/mol]
  Total SAPT2                       0.02994842 [mEh]       0.01879292 [kcal/mol]       0.07862957 [kJ/mol]
  Total SAPT2+                      0.02798270 [mEh]       0.01755941 [kcal/mol]       0.07346858 [kJ/mol]

  Special recipe for scaled SAPT0 (see Manual):
    Electrostatics sSAPT0           0.15077133 [mEh]       0.09461044 [kcal/mol]       0.39585008 [kJ/mol]
    Exchange sSAPT0                 0.00007855 [mEh]       0.00004929 [kcal/mol]       0.00020623 [kJ/mol]
    Induction sSAPT0               -0.01864030 [mEh]      -0.01169697 [kcal/mol]      -0.04894010 [kJ/mol]
    Dispersion sSAPT0              -0.04792203 [mEh]      -0.03007153 [kcal/mol]      -0.12581926 [kJ/mol]
  Total sSAPT0                      0.08428755 [mEh]       0.05289124 [kcal/mol]       0.22129694 [kJ/mol]
  --------------------------------------------------------------------------------------------------------

*** Psi4 exiting successfully. Buy a developer a beer!
