                               Psi4 1.4a2.dev224

  ==> Input File <==

--------------------------------------------------------------------------
#Generated by lconvert.py for sapt job

memory 20 GB

molecule  {
0 1
 Br       2.119600   -0.131360    0.000050
  C       0.238170   -0.065000    0.000010
  C      -0.407250    1.169610   -0.000030
  C      -0.490340   -1.252500    0.000010
  C      -1.799760    1.210440   -0.000060
  C      -1.882340   -1.197580   -0.000020
  C      -2.540580    0.030440   -0.000060
  H       0.173020    2.080980   -0.000030
  H       0.026310   -2.201380    0.000040
  H      -2.302820    2.167800   -0.000090
  H      -2.449800   -2.118200   -0.000010
  H      -3.620870    0.067510   -0.000080
--
0 1
  O       7.302910   -0.232620    0.000130
  H       7.729900    0.178970    0.754220
  H       7.729900    0.178970   -0.753960
units angstrom
no_reorient
symmetry c1
}

set {
scf_type DF
basis aug-cc-pvdz
freeze_core True
guess SAD
}
energy('sapt2+')
--------------------------------------------------------------------------

  //              Dimer HF             //
    Molecular point group: c1
  Charge       = 0
  Multiplicity = 1
  Basis Set: AUG-CC-PVDZ
    Blend: AUG-CC-PVDZ
  Basis Set: (AUG-CC-PVDZ AUX)
    Blend: AUG-CC-PVDZ-JKFIT
  @DF-RHF Final Energy: -2877.89800566493204
    Total Energy =                      -2877.8980056649315884
  //            Monomer A HF           //
    Molecular point group: c1
  Multiplicity = 1
  Basis Set: AUG-CC-PVDZ
    Blend: AUG-CC-PVDZ
  Basis Set: (AUG-CC-PVDZ AUX)
    Blend: AUG-CC-PVDZ-JKFIT
  @DF-RHF Final Energy: -2801.85686984905669
    Total Energy =                      -2801.8568698490571478
  //            Monomer B HF           //
    Molecular point group: c1

    Geometry (in Angstrom), charge = 0, multiplicity = 1:

       Center              X                  Y                   Z               Mass
    ------------   -----------------  -----------------  -----------------  -----------------
      Gh(BR)          0.919136996906    -0.045222880793     0.000025191073    78.918337600000
      Gh(C)          -0.962293003094     0.021137119207    -0.000014808927    12.000000000000
      Gh(C)          -1.607713003094     1.255747119207    -0.000054808927    12.000000000000
      Gh(C)          -1.690803003094    -1.166362880793    -0.000014808927    12.000000000000
      Gh(C)          -3.000223003094     1.296577119207    -0.000084808927    12.000000000000
      Gh(C)          -3.082803003094    -1.111442880793    -0.000044808927    12.000000000000
      Gh(C)          -3.741043003094     0.116577119207    -0.000084808927    12.000000000000
      Gh(H)          -1.027443003094     2.167117119207    -0.000054808927     1.007825032230
      Gh(H)          -1.174153003094    -2.115242880793     0.000015191073     1.007825032230
      Gh(H)          -3.503283003094     2.253937119207    -0.000114808927     1.007825032230
      Gh(H)          -3.650263003094    -2.032062880793    -0.000034808927     1.007825032230
      Gh(H)          -4.821333003094     0.153647119207    -0.000104808927     1.007825032230
         O            6.102446996906    -0.146482880793     0.000105191073    15.994914619570
         H            6.529436996906     0.265107119207     0.754195191073     1.007825032230
         H            6.529436996906     0.265107119207    -0.753984808927     1.007825032230

  Charge       = 0
  Multiplicity = 1
  Basis Set: AUG-CC-PVDZ
    Blend: AUG-CC-PVDZ
  Basis Set: (AUG-CC-PVDZ AUX)
    Blend: AUG-CC-PVDZ-JKFIT

    Orbital Energies [Eh]
    ---------------------

    Doubly Occupied:

       1A    -20.578035     2A     -1.356196     3A     -0.716409
       4A     -0.586988     5A     -0.509519

  @DF-RHF Final Energy:   -76.04124129770187

   => Energetics <=

    Nuclear Repulsion Energy =              9.1763421213258418
    One-Electron Energy =                -122.9408728671644440
    Two-Electron Energy =                  37.7232894481367325
    Total Energy =                        -76.0412412977018732

  Dipole Moment: [D]
     X:     1.4483      Y:     1.4008      Z:    -0.0000     Total:     2.0149

    SAPT Results
  --------------------------------------------------------------------------------------------------------
    Electrostatics                  0.06528240 [mEh]       0.04096532 [kcal/mol]       0.17139891 [kJ/mol]
      Elst10,r                      0.14141712 [mEh]       0.08874058 [kcal/mol]       0.37129060 [kJ/mol]
      Elst12,r                     -0.07613472 [mEh]      -0.04777526 [kcal/mol]      -0.19989169 [kJ/mol]

    Exchange                        0.00380278 [mEh]       0.00238628 [kcal/mol]       0.00998419 [kJ/mol]
      Exch10                        0.00257904 [mEh]       0.00161837 [kcal/mol]       0.00677126 [kJ/mol]
      Exch10(S^2)                   0.00257903 [mEh]       0.00161836 [kcal/mol]       0.00677124 [kJ/mol]
      Exch11(S^2)                  -0.00010563 [mEh]      -0.00006629 [kcal/mol]      -0.00027734 [kJ/mol]
      Exch12(S^2)                   0.00132938 [mEh]       0.00083420 [kcal/mol]       0.00349027 [kJ/mol]

    Induction                      -0.03660868 [mEh]      -0.02297229 [kcal/mol]      -0.09611607 [kJ/mol]
      Ind20,r                      -0.03281373 [mEh]      -0.02059093 [kcal/mol]      -0.08615244 [kJ/mol]
      Ind22                         0.00195866 [mEh]       0.00122907 [kcal/mol]       0.00514245 [kJ/mol]
      Exch-Ind20,r                  0.00088800 [mEh]       0.00055723 [kcal/mol]       0.00233144 [kJ/mol]
      Exch-Ind22                   -0.00005300 [mEh]      -0.00003326 [kcal/mol]      -0.00013916 [kJ/mol]
      delta HF,r (2)               -0.00658860 [mEh]      -0.00413441 [kcal/mol]      -0.01729836 [kJ/mol]

    Dispersion                     -0.13383776 [mEh]      -0.08398446 [kcal/mol]      -0.35139100 [kJ/mol]
      Disp20                       -0.12818696 [mEh]      -0.08043853 [kcal/mol]      -0.33655481 [kJ/mol]
      Disp21                        0.01818453 [mEh]       0.01141097 [kcal/mol]       0.04774349 [kJ/mol]
      Disp22 (SDQ)                 -0.00176254 [mEh]      -0.00110601 [kcal/mol]      -0.00462754 [kJ/mol]
      Disp22 (T)                   -0.02191094 [mEh]      -0.01374932 [kcal/mol]      -0.05752717 [kJ/mol]
      Est. Disp22 (T)              -0.02246475 [mEh]      -0.01409684 [kcal/mol]      -0.05898119 [kJ/mol]
      Exch-Disp20                   0.00039194 [mEh]       0.00024595 [kcal/mol]       0.00102905 [kJ/mol]

  Total HF                          0.10548183 [mEh]       0.06619085 [kcal/mol]       0.27694250 [kJ/mol]
  Total SAPT0                      -0.02231319 [mEh]      -0.01400174 [kcal/mol]      -0.05858326 [kJ/mol]
  Total SAPT2                      -0.09531852 [mEh]      -0.05981327 [kcal/mol]      -0.25025873 [kJ/mol]
  Total SAPT2+                     -0.10136127 [mEh]      -0.06360516 [kcal/mol]      -0.26612397 [kJ/mol]

  Special recipe for scaled SAPT0 (see Manual):
    Electrostatics sSAPT0           0.14141712 [mEh]       0.08874058 [kcal/mol]       0.37129060 [kJ/mol]
    Exchange sSAPT0                 0.00257904 [mEh]       0.00161837 [kcal/mol]       0.00677126 [kJ/mol]
    Induction sSAPT0               -0.03851433 [mEh]      -0.02416811 [kcal/mol]      -0.10111936 [kJ/mol]
    Dispersion sSAPT0              -0.12779501 [mEh]      -0.08019258 [kcal/mol]      -0.33552576 [kJ/mol]
  Total sSAPT0                     -0.02231319 [mEh]      -0.01400174 [kcal/mol]      -0.05858326 [kJ/mol]
  --------------------------------------------------------------------------------------------------------

*** Psi4 exiting successfully. Buy a developer a beer!
