                               Psi4 1.4a2.dev224

  ==> Input File <==

--------------------------------------------------------------------------
#Generated by lconvert.py for sapt job

memory 20 GB

molecule  {
0 1
  F       0.939940    0.557600    1.462150
  F      -0.941880   -0.581470    1.457720
  C      -0.007060   -0.004990    2.253220
  H      -0.481150    0.775970    2.840210
  H       0.457900   -0.775480    2.860990
--
0 1
  F       0.568430   -0.920820   -3.543110
  F      -0.569870    0.962950   -3.501860
  C       0.008110    0.009040   -2.729840
  H       0.788770    0.467720   -2.131010
  H      -0.759170   -0.467720   -2.127870
units angstrom
no_reorient
symmetry c1
}

set {
scf_type DF
basis aug-cc-pvdz
freeze_core True
guess SAD
}
energy('sapt2+')
--------------------------------------------------------------------------

  //              Dimer HF             //
    Molecular point group: c1
  Charge       = 0
  Multiplicity = 1
  Basis Set: AUG-CC-PVDZ
    Blend: AUG-CC-PVDZ
  Basis Set: (AUG-CC-PVDZ AUX)
    Blend: AUG-CC-PVDZ-JKFIT
  @DF-RHF Final Energy:  -475.86485373618325
    Total Energy =                       -475.8648537361832496
  //            Monomer A HF           //
    Molecular point group: c1
  Multiplicity = 1
  Basis Set: AUG-CC-PVDZ
    Blend: AUG-CC-PVDZ
  Basis Set: (AUG-CC-PVDZ AUX)
    Blend: AUG-CC-PVDZ-JKFIT
  @DF-RHF Final Energy:  -237.93168049215851
    Total Energy =                       -237.9316804921585060
  //            Monomer B HF           //
    Molecular point group: c1

    Geometry (in Angstrom), charge = 0, multiplicity = 1:

       Center              X                  Y                   Z               Mass
    ------------   -----------------  -----------------  -----------------  -----------------
      Gh(F)           0.940374654666     0.553793174640     2.256538041074    18.998403162730
      Gh(F)          -0.941445345334    -0.585276825360     2.252108041074    18.998403162730
      Gh(C)          -0.006625345334    -0.008796825360     3.047608041074    12.000000000000
      Gh(H)          -0.480715345334     0.772163174640     3.634598041074     1.007825032230
      Gh(H)           0.458334654666    -0.779286825360     3.655378041074     1.007825032230
         F            0.568864654666    -0.924626825360    -2.748721958926    18.998403162730
         F           -0.569435345334     0.959143174640    -2.707471958926    18.998403162730
         C            0.008544654666     0.005233174640    -1.935451958926    12.000000000000
         H            0.789204654666     0.463913174640    -1.336621958926     1.007825032230
         H           -0.758735345334    -0.471526825360    -1.333481958926     1.007825032230

  Charge       = 0
  Multiplicity = 1
  Basis Set: AUG-CC-PVDZ
    Blend: AUG-CC-PVDZ
  Basis Set: (AUG-CC-PVDZ AUX)
    Blend: AUG-CC-PVDZ-JKFIT

    Orbital Energies [Eh]
    ---------------------

    Doubly Occupied:

       1A    -26.325945     2A    -26.325927     3A    -11.417118
       4A     -1.668250     5A     -1.607824     6A     -0.976109
       7A     -0.780448     8A     -0.772787     9A     -0.757966
      10A     -0.668213    11A     -0.633654    12A     -0.623536
      13A     -0.538177

  @DF-RHF Final Energy:  -237.93156916787407

   => Energetics <=

    Nuclear Repulsion Energy =             77.3062239630270227
    One-Electron Energy =                -484.2836736424873152
    Two-Electron Energy =                 169.0458805115862049
    Total Energy =                       -237.9315691678740734

  Dipole Moment: [D]
     X:     0.0247      Y:    -0.0337      Z:     2.2190     Total:     2.2194

    SAPT Results
  --------------------------------------------------------------------------------------------------------
    Electrostatics                 -1.27063669 [mEh]      -0.79733656 [kcal/mol]      -3.33605616 [kJ/mol]
      Elst10,r                     -1.57996757 [mEh]      -0.99144462 [kcal/mol]      -4.14820427 [kJ/mol]
      Elst12,r                      0.30933088 [mEh]       0.19410806 [kcal/mol]       0.81214812 [kJ/mol]

    Exchange                        0.06915327 [mEh]       0.04339433 [kcal/mol]       0.18156188 [kJ/mol]
      Exch10                        0.05030876 [mEh]       0.03156922 [kcal/mol]       0.13208562 [kJ/mol]
      Exch10(S^2)                   0.05030747 [mEh]       0.03156842 [kcal/mol]       0.13208225 [kJ/mol]
      Exch11(S^2)                  -0.00194958 [mEh]      -0.00122338 [kcal/mol]      -0.00511862 [kJ/mol]
      Exch12(S^2)                   0.02079409 [mEh]       0.01304849 [kcal/mol]       0.05459488 [kJ/mol]

    Induction                      -0.06974700 [mEh]      -0.04376690 [kcal/mol]      -0.18312071 [kJ/mol]
      Ind20,r                      -0.07090387 [mEh]      -0.04449285 [kcal/mol]      -0.18615808 [kJ/mol]
      Ind22                         0.00513189 [mEh]       0.00322031 [kcal/mol]       0.01347378 [kJ/mol]
      Exch-Ind20,r                  0.00637688 [mEh]       0.00400155 [kcal/mol]       0.01674249 [kJ/mol]
      Exch-Ind22                   -0.00046155 [mEh]      -0.00028962 [kcal/mol]      -0.00121179 [kJ/mol]
      delta HF,r (2)               -0.00989035 [mEh]      -0.00620629 [kcal/mol]      -0.02596711 [kJ/mol]

    Dispersion                     -0.42822571 [mEh]      -0.26871569 [kcal/mol]      -1.12430645 [kJ/mol]
      Disp20                       -0.36866817 [mEh]      -0.23134277 [kcal/mol]      -0.96793815 [kJ/mol]
      Disp21                        0.00959582 [mEh]       0.00602147 [kcal/mol]       0.02519382 [kJ/mol]
      Disp22 (SDQ)                 -0.01608651 [mEh]      -0.01009444 [kcal/mol]      -0.04223513 [kJ/mol]
      Disp22 (T)                   -0.05492688 [mEh]      -0.03446714 [kcal/mol]      -0.14421050 [kJ/mol]
      Est. Disp22 (T)              -0.05752375 [mEh]      -0.03609670 [kcal/mol]      -0.15102859 [kJ/mol]
      Exch-Disp20                   0.00445691 [mEh]       0.00279675 [kcal/mol]       0.01170160 [kJ/mol]

  Total HF                         -1.60407615 [mEh]      -1.00657298 [kcal/mol]      -4.21150135 [kJ/mol]
  Total SAPT0                      -1.96828741 [mEh]      -1.23511900 [kcal/mol]      -5.16773790 [kJ/mol]
  Total SAPT2                      -1.63544168 [mEh]      -1.02625515 [kcal/mol]      -4.29385154 [kJ/mol]
  Total SAPT2+                     -1.69945612 [mEh]      -1.06642482 [kcal/mol]      -4.46192144 [kJ/mol]

  Special recipe for scaled SAPT0 (see Manual):
    Electrostatics sSAPT0          -1.57996757 [mEh]      -0.99144462 [kcal/mol]      -4.14820427 [kJ/mol]
    Exchange sSAPT0                 0.05030876 [mEh]       0.03156922 [kcal/mol]       0.13208562 [kJ/mol]
    Induction sSAPT0               -0.07441685 [mEh]      -0.04669728 [kcal/mol]      -0.19538142 [kJ/mol]
    Dispersion sSAPT0              -0.36421092 [mEh]      -0.22854580 [kcal/mol]      -0.95623565 [kJ/mol]
  Total sSAPT0                     -1.96828659 [mEh]      -1.23511848 [kcal/mol]      -5.16773572 [kJ/mol]
  --------------------------------------------------------------------------------------------------------

*** Psi4 exiting successfully. Buy a developer a beer!
