                               Psi4 1.4a2.dev224

  ==> Input File <==

--------------------------------------------------------------------------
#Generated by lconvert.py for sapt job

memory 20 GB

molecule  {
0 1
  F       0.939940    0.557600    1.462150
  F      -0.941880   -0.581470    1.457720
  C      -0.007060   -0.004990    2.253220
  H      -0.481150    0.775970    2.840210
  H       0.457900   -0.775480    2.860990
--
0 1
  F       0.570000   -0.911680   -5.208170
  F      -0.568290    0.972080   -5.166920
  C       0.009680    0.018170   -4.394900
  H       0.790340    0.476850   -3.796070
  H      -0.757590   -0.458590   -3.792930
units angstrom
no_reorient
symmetry c1
}

set {
scf_type DF
basis aug-cc-pvdz
freeze_core True
guess SAD
}
energy('sapt2+')
--------------------------------------------------------------------------

  //              Dimer HF             //
    Molecular point group: c1
  Charge       = 0
  Multiplicity = 1
  Basis Set: AUG-CC-PVDZ
    Blend: AUG-CC-PVDZ
  Basis Set: (AUG-CC-PVDZ AUX)
    Blend: AUG-CC-PVDZ-JKFIT
  @DF-RHF Final Energy:  -475.86384314725245
    Total Energy =                       -475.8638431472524530
  //            Monomer A HF           //
    Molecular point group: c1
  Multiplicity = 1
  Basis Set: AUG-CC-PVDZ
    Blend: AUG-CC-PVDZ
  Basis Set: (AUG-CC-PVDZ AUX)
    Blend: AUG-CC-PVDZ-JKFIT
  @DF-RHF Final Energy:  -237.93159408190198
    Total Energy =                       -237.9315940819019772
  //            Monomer B HF           //
    Molecular point group: c1

    Geometry (in Angstrom), charge = 0, multiplicity = 1:

       Center              X                  Y                   Z               Mass
    ------------   -----------------  -----------------  -----------------  -----------------
      Gh(F)           0.939587731451     0.549226348308     3.089068041074    18.998403162730
      Gh(F)          -0.942232268549    -0.589843651692     3.084638041074    18.998403162730
      Gh(C)          -0.007412268549    -0.013363651692     3.880138041074    12.000000000000
      Gh(H)          -0.481502268549     0.767596348308     4.467128041074     1.007825032230
      Gh(H)           0.457547731451    -0.783853651692     4.487908041074     1.007825032230
         F            0.569647731451    -0.920053651692    -3.581251958926    18.998403162730
         F           -0.568642268549     0.963706348308    -3.540001958926    18.998403162730
         C            0.009327731451     0.009796348308    -2.767981958926    12.000000000000
         H            0.789987731451     0.468476348308    -2.169151958926     1.007825032230
         H           -0.757942268549    -0.466963651692    -2.166011958926     1.007825032230

  Charge       = 0
  Multiplicity = 1
  Basis Set: AUG-CC-PVDZ
    Blend: AUG-CC-PVDZ
  Basis Set: (AUG-CC-PVDZ AUX)
    Blend: AUG-CC-PVDZ-JKFIT

    Orbital Energies [Eh]
    ---------------------

    Doubly Occupied:

       1A    -26.325935     2A    -26.325918     3A    -11.417136
       4A     -1.668251     5A     -1.607824     6A     -0.976116
       7A     -0.780449     8A     -0.772790     9A     -0.757972
      10A     -0.668205    11A     -0.633655    12A     -0.623540
      13A     -0.538177

  @DF-RHF Final Energy:  -237.93153599402243

   => Energetics <=

    Nuclear Repulsion Energy =             77.3065657063155953
    One-Electron Energy =                -484.2842692842273209
    Two-Electron Energy =                 169.0461675838892859
    Total Energy =                       -237.9315359940224255

  Dipole Moment: [D]
     X:     0.0247      Y:    -0.0337      Z:     2.2183     Total:     2.2187

    SAPT Results
  --------------------------------------------------------------------------------------------------------
    Electrostatics                 -0.55863066 [mEh]      -0.35054603 [kcal/mol]      -1.46668460 [kJ/mol]
      Elst10,r                     -0.70043402 [mEh]      -0.43952898 [kcal/mol]      -1.83898927 [kJ/mol]
      Elst12,r                      0.14180336 [mEh]       0.08898295 [kcal/mol]       0.37230466 [kJ/mol]

    Exchange                        0.00006962 [mEh]       0.00004369 [kcal/mol]       0.00018279 [kJ/mol]
      Exch10                        0.00004697 [mEh]       0.00002948 [kcal/mol]       0.00012332 [kJ/mol]
      Exch10(S^2)                   0.00004697 [mEh]       0.00002948 [kcal/mol]       0.00012332 [kJ/mol]
      Exch11(S^2)                  -0.00000403 [mEh]      -0.00000253 [kcal/mol]      -0.00001057 [kJ/mol]
      Exch12(S^2)                   0.00002668 [mEh]       0.00001674 [kcal/mol]       0.00007004 [kJ/mol]

    Induction                      -0.01109781 [mEh]      -0.00696398 [kcal/mol]      -0.02913730 [kJ/mol]
      Ind20,r                      -0.01161835 [mEh]      -0.00729063 [kcal/mol]      -0.03050399 [kJ/mol]
      Ind22                         0.00158747 [mEh]       0.00099615 [kcal/mol]       0.00416790 [kJ/mol]
      Exch-Ind20,r                  0.00000733 [mEh]       0.00000460 [kcal/mol]       0.00001924 [kJ/mol]
      Exch-Ind22                   -0.00000100 [mEh]      -0.00000063 [kcal/mol]      -0.00000263 [kJ/mol]
      delta HF,r (2)               -0.00107325 [mEh]      -0.00067348 [kcal/mol]      -0.00281783 [kJ/mol]

    Dispersion                     -0.05895032 [mEh]      -0.03699188 [kcal/mol]      -0.15477404 [kJ/mol]
      Disp20                       -0.05151773 [mEh]      -0.03232786 [kcal/mol]      -0.13525977 [kJ/mol]
      Disp21                        0.00270679 [mEh]       0.00169854 [kcal/mol]       0.00710668 [kJ/mol]
      Disp22 (SDQ)                 -0.00192219 [mEh]      -0.00120620 [kcal/mol]      -0.00504672 [kJ/mol]
      Disp22 (T)                   -0.00815458 [mEh]      -0.00511708 [kcal/mol]      -0.02140985 [kJ/mol]
      Est. Disp22 (T)              -0.00822771 [mEh]      -0.00516296 [kcal/mol]      -0.02160184 [kJ/mol]
      Exch-Disp20                   0.00001052 [mEh]       0.00000660 [kcal/mol]       0.00002761 [kJ/mol]

  Total HF                         -0.71307133 [mEh]      -0.44745901 [kcal/mol]      -1.87216851 [kJ/mol]
  Total SAPT0                      -0.76457854 [mEh]      -0.47978027 [kcal/mol]      -2.00740067 [kJ/mol]
  Total SAPT2                      -0.62116606 [mEh]      -0.38978759 [kcal/mol]      -1.63087127 [kJ/mol]
  Total SAPT2+                     -0.62860917 [mEh]      -0.39445821 [kcal/mol]      -1.65041315 [kJ/mol]

  Special recipe for scaled SAPT0 (see Manual):
    Electrostatics sSAPT0          -0.70043402 [mEh]      -0.43952898 [kcal/mol]      -1.83898927 [kJ/mol]
    Exchange sSAPT0                 0.00004697 [mEh]       0.00002948 [kcal/mol]       0.00012332 [kJ/mol]
    Induction sSAPT0               -0.01268428 [mEh]      -0.00795951 [kcal/mol]      -0.03330257 [kJ/mol]
    Dispersion sSAPT0              -0.05150721 [mEh]      -0.03232126 [kcal/mol]      -0.13523216 [kJ/mol]
  Total sSAPT0                     -0.76457854 [mEh]      -0.47978027 [kcal/mol]      -2.00740067 [kJ/mol]
  --------------------------------------------------------------------------------------------------------

*** Psi4 exiting successfully. Buy a developer a beer!
