                               Psi4 1.4a2.dev224

  ==> Input File <==

--------------------------------------------------------------------------
#Generated by lconvert.py for sapt job

memory 20 GB

molecule  {
0 1
  F       0.939940    0.557600    1.462150
  F      -0.941880   -0.581470    1.457720
  C      -0.007060   -0.004990    2.253220
  H      -0.481150    0.775970    2.840210
  H       0.457900   -0.775480    2.860990
--
0 1
  F       0.569220   -0.916250   -4.375640
  F      -0.569080    0.967510   -4.334390
  C       0.008900    0.013610   -3.562370
  H       0.789550    0.472290   -2.963540
  H      -0.758380   -0.463150   -2.960400
units angstrom
no_reorient
symmetry c1
}

set {
scf_type DF
basis aug-cc-pvdz
freeze_core True
guess SAD
}
energy('sapt2+')
--------------------------------------------------------------------------

  //              Dimer HF             //
    Molecular point group: c1
  Charge       = 0
  Multiplicity = 1
  Basis Set: AUG-CC-PVDZ
    Blend: AUG-CC-PVDZ
  Basis Set: (AUG-CC-PVDZ AUX)
    Blend: AUG-CC-PVDZ-JKFIT
  @DF-RHF Final Energy:  -475.86421477336620
    Total Energy =                       -475.8642147733662000
  //            Monomer A HF           //
    Molecular point group: c1
  Multiplicity = 1
  Basis Set: AUG-CC-PVDZ
    Blend: AUG-CC-PVDZ
  Basis Set: (AUG-CC-PVDZ AUX)
    Blend: AUG-CC-PVDZ-JKFIT
  @DF-RHF Final Energy:  -237.93162426744541
    Total Energy =                       -237.9316242674454145
  //            Monomer B HF           //
    Molecular point group: c1

    Geometry (in Angstrom), charge = 0, multiplicity = 1:

       Center              X                  Y                   Z               Mass
    ------------   -----------------  -----------------  -----------------  -----------------
      Gh(F)           0.939979751549     0.551510000972     2.672803041074    18.998403162730
      Gh(F)          -0.941840248451    -0.587559999028     2.668373041074    18.998403162730
      Gh(C)          -0.007020248451    -0.011079999028     3.463873041074    12.000000000000
      Gh(H)          -0.481110248451     0.769880000972     4.050863041074     1.007825032230
      Gh(H)           0.457939751549    -0.781569999028     4.071643041074     1.007825032230
         F            0.569259751549    -0.922339999028    -3.164986958926    18.998403162730
         F           -0.569040248451     0.961420000972    -3.123736958926    18.998403162730
         C            0.008939751549     0.007520000972    -2.351716958926    12.000000000000
         H            0.789589751549     0.466200000972    -1.752886958926     1.007825032230
         H           -0.758340248451    -0.469239999028    -1.749746958926     1.007825032230

  Charge       = 0
  Multiplicity = 1
  Basis Set: AUG-CC-PVDZ
    Blend: AUG-CC-PVDZ
  Basis Set: (AUG-CC-PVDZ AUX)
    Blend: AUG-CC-PVDZ-JKFIT

    Orbital Energies [Eh]
    ---------------------

    Doubly Occupied:

       1A    -26.325939     2A    -26.325922     3A    -11.417132
       4A     -1.668252     5A     -1.607825     6A     -0.976116
       7A     -0.780451     8A     -0.772790     9A     -0.757972
      10A     -0.668208    11A     -0.633656    12A     -0.623540
      13A     -0.538179

  @DF-RHF Final Energy:  -237.93154424913652

   => Energetics <=

    Nuclear Repulsion Energy =             77.3064507242497427
    One-Electron Energy =                -484.2840217211407889
    Two-Electron Energy =                 169.0460267477544960
    Total Energy =                       -237.9315442491365218

  Dipole Moment: [D]
     X:     0.0247      Y:    -0.0336      Z:     2.2187     Total:     2.2191

    SAPT Results
  --------------------------------------------------------------------------------------------------------
    Electrostatics                 -0.81361060 [mEh]      -0.51054836 [kcal/mol]      -2.13613434 [kJ/mol]
      Elst10,r                     -1.01926315 [mEh]      -0.63959728 [kcal/mol]      -2.67607504 [kJ/mol]
      Elst12,r                      0.20565255 [mEh]       0.12904892 [kcal/mol]       0.53994069 [kJ/mol]

    Exchange                        0.00270668 [mEh]       0.00169847 [kcal/mol]       0.00710639 [kJ/mol]
      Exch10                        0.00182759 [mEh]       0.00114683 [kcal/mol]       0.00479835 [kJ/mol]
      Exch10(S^2)                   0.00182759 [mEh]       0.00114683 [kcal/mol]       0.00479834 [kJ/mol]
      Exch11(S^2)                  -0.00010158 [mEh]      -0.00006374 [kcal/mol]      -0.00026671 [kJ/mol]
      Exch12(S^2)                   0.00098067 [mEh]       0.00061538 [kcal/mol]       0.00257475 [kJ/mol]

    Induction                      -0.02551290 [mEh]      -0.01600959 [kcal/mol]      -0.06698411 [kJ/mol]
      Ind20,r                      -0.02580795 [mEh]      -0.01619474 [kcal/mol]      -0.06775878 [kJ/mol]
      Ind22                         0.00333415 [mEh]       0.00209221 [kcal/mol]       0.00875381 [kJ/mol]
      Exch-Ind20,r                  0.00019988 [mEh]       0.00012543 [kcal/mol]       0.00052480 [kJ/mol]
      Exch-Ind22                   -0.00002582 [mEh]      -0.00001620 [kcal/mol]      -0.00006780 [kJ/mol]
      delta HF,r (2)               -0.00321316 [mEh]      -0.00201629 [kcal/mol]      -0.00843614 [kJ/mol]

    Dispersion                     -0.14441651 [mEh]      -0.09062273 [kcal/mol]      -0.37916549 [kJ/mol]
      Disp20                       -0.12519984 [mEh]      -0.07856408 [kcal/mol]      -0.32871212 [kJ/mol]
      Disp21                        0.00528776 [mEh]       0.00331812 [kcal/mol]       0.01388301 [kJ/mol]
      Disp22 (SDQ)                 -0.00490528 [mEh]      -0.00307811 [kcal/mol]      -0.01287881 [kJ/mol]
      Disp22 (T)                   -0.01942800 [mEh]      -0.01219125 [kcal/mol]      -0.05100820 [kJ/mol]
      Est. Disp22 (T)              -0.01979920 [mEh]      -0.01242419 [kcal/mol]      -0.05198280 [kJ/mol]
      Exch-Disp20                   0.00020005 [mEh]       0.00012554 [kcal/mol]       0.00052524 [kJ/mol]

  Total HF                         -1.04625678 [mEh]      -0.65653604 [kcal/mol]      -2.74694681 [kJ/mol]
  Total SAPT0                      -1.17125657 [mEh]      -0.73497459 [kcal/mol]      -3.07513369 [kJ/mol]
  Total SAPT2                      -0.96141660 [mEh]      -0.60329803 [kcal/mol]      -2.52419895 [kJ/mol]
  Total SAPT2+                     -0.98083333 [mEh]      -0.61548221 [kcal/mol]      -2.57517755 [kJ/mol]

  Special recipe for scaled SAPT0 (see Manual):
    Electrostatics sSAPT0          -1.01926315 [mEh]      -0.63959728 [kcal/mol]      -2.67607504 [kJ/mol]
    Exchange sSAPT0                 0.00182759 [mEh]       0.00114683 [kcal/mol]       0.00479835 [kJ/mol]
    Induction sSAPT0               -0.02882123 [mEh]      -0.01808559 [kcal/mol]      -0.07567012 [kJ/mol]
    Dispersion sSAPT0              -0.12499978 [mEh]      -0.07843855 [kcal/mol]      -0.32818688 [kJ/mol]
  Total sSAPT0                     -1.17125657 [mEh]      -0.73497459 [kcal/mol]      -3.07513369 [kJ/mol]
  --------------------------------------------------------------------------------------------------------

*** Psi4 exiting successfully. Buy a developer a beer!
