                               Psi4 1.4a2.dev224

  ==> Input File <==

--------------------------------------------------------------------------
#Generated by lconvert.py for sapt job

memory 20 GB

molecule  {
0 1
 Cl       0.345460    1.418920    1.445490
 Cl      -0.362080   -1.434280    1.443480
  C      -0.013030   -0.007170    2.429450
  H      -0.885410    0.208440    3.032030
  H       0.853360   -0.222190    3.040790
--
0 1
 Cl      -0.355740   -1.396770   -6.918230
 Cl       0.347140    1.458600   -6.915850
  C       0.020510    0.024160   -5.934950
  H       0.901480   -0.194260   -5.346700
  H      -0.829230    0.233840   -5.299680
units angstrom
no_reorient
symmetry c1
}

set {
scf_type DF
basis aug-cc-pvdz
freeze_core True
guess SAD
}
energy('sapt2+')
--------------------------------------------------------------------------

  //              Dimer HF             //
    Molecular point group: c1
  Charge       = 0
  Multiplicity = 1
  Basis Set: AUG-CC-PVDZ
    Blend: AUG-CC-PVDZ
  Basis Set: (AUG-CC-PVDZ AUX)
    Blend: AUG-CC-PVDZ-JKFIT
  @DF-RHF Final Energy: -1916.07917813041172
    Total Energy =                      -1916.0791781304117194
  //            Monomer A HF           //
    Molecular point group: c1
  Multiplicity = 1
  Basis Set: AUG-CC-PVDZ
    Blend: AUG-CC-PVDZ
  Basis Set: (AUG-CC-PVDZ AUX)
    Blend: AUG-CC-PVDZ-JKFIT
  @DF-RHF Final Energy:  -958.03945778042487
    Total Energy =                       -958.0394577804248684
  //            Monomer B HF           //
    Molecular point group: c1

    Geometry (in Angstrom), charge = 0, multiplicity = 1:

       Center              X                  Y                   Z               Mass
    ------------   -----------------  -----------------  -----------------  -----------------
      Gh(CL)          0.349936532799     1.407872706564     4.002941606557    34.968852682000
      Gh(CL)         -0.357603467201    -1.445327293436     4.000931606557    34.968852682000
      Gh(C)          -0.008553467201    -0.018217293436     4.986901606557    12.000000000000
      Gh(H)          -0.880933467201     0.197392706564     5.589481606557     1.007825032230
      Gh(H)           0.857836532799    -0.233237293436     5.598241606557     1.007825032230
         CL          -0.351263467201    -1.407817293436    -4.360778393443    34.968852682000
         CL           0.351616532799     1.447552706564    -4.358398393443    34.968852682000
         C            0.024986532799     0.013112706564    -3.377498393443    12.000000000000
         H            0.905956532799    -0.205307293436    -2.789248393443     1.007825032230
         H           -0.824753467201     0.222792706564    -2.742228393443     1.007825032230

  Charge       = 0
  Multiplicity = 1
  Basis Set: AUG-CC-PVDZ
    Blend: AUG-CC-PVDZ
  Basis Set: (AUG-CC-PVDZ AUX)
    Blend: AUG-CC-PVDZ-JKFIT

    Orbital Energies [Eh]
    ---------------------

    Doubly Occupied:

       1A   -104.848658     2A   -104.848636     3A    -11.371981
       4A    -10.575274     5A    -10.575241     6A     -8.042997
       7A     -8.042969     8A     -8.039516     9A     -8.039489
      10A     -8.039403    11A     -8.039376    12A     -1.197665
      13A     -1.100257    14A     -0.899425    15A     -0.678574
      16A     -0.619794    17A     -0.588092    18A     -0.474901
      19A     -0.472796    20A     -0.448882    21A     -0.447299

  @DF-RHF Final Energy:  -958.03942186460654

   => Energetics <=

    Nuclear Repulsion Energy =            134.5677947781576904
    One-Electron Energy =               -1590.4319816801780689
    Two-Electron Energy =                 497.8247650374136697
    Total Energy =                       -958.0394218646065383

  Dipole Moment: [D]
     X:     0.0476      Y:    -0.0122      Z:     1.8702     Total:     1.8708

    SAPT Results
  --------------------------------------------------------------------------------------------------------
    Electrostatics                 -0.23598817 [mEh]      -0.14808481 [kcal/mol]      -0.61958685 [kJ/mol]
      Elst10,r                     -0.29247106 [mEh]      -0.18352836 [kcal/mol]      -0.76788266 [kJ/mol]
      Elst12,r                      0.05648289 [mEh]       0.03544355 [kcal/mol]       0.14829581 [kJ/mol]

    Exchange                       -0.00000654 [mEh]      -0.00000411 [kcal/mol]      -0.00001718 [kJ/mol]
      Exch10                        0.00000313 [mEh]       0.00000196 [kcal/mol]       0.00000821 [kJ/mol]
      Exch10(S^2)                   0.00000313 [mEh]       0.00000196 [kcal/mol]       0.00000821 [kJ/mol]
      Exch11(S^2)                   0.00000030 [mEh]       0.00000019 [kcal/mol]       0.00000080 [kJ/mol]
      Exch12(S^2)                  -0.00000997 [mEh]      -0.00000626 [kcal/mol]      -0.00002618 [kJ/mol]

    Induction                      -0.00497505 [mEh]      -0.00312189 [kcal/mol]      -0.01306199 [kJ/mol]
      Ind20,r                      -0.00595291 [mEh]      -0.00373551 [kcal/mol]      -0.01562937 [kJ/mol]
      Ind22                         0.00104516 [mEh]       0.00065585 [kcal/mol]       0.00274406 [kJ/mol]
      Exch-Ind20,r                  0.00001572 [mEh]       0.00000987 [kcal/mol]       0.00004129 [kJ/mol]
      Exch-Ind22                   -0.00000276 [mEh]      -0.00000173 [kcal/mol]      -0.00000725 [kJ/mol]
      delta HF,r (2)               -0.00008026 [mEh]      -0.00005036 [kcal/mol]      -0.00021072 [kJ/mol]

    Dispersion                     -0.05538733 [mEh]      -0.03475608 [kcal/mol]      -0.14541942 [kJ/mol]
      Disp20                       -0.06218047 [mEh]      -0.03901883 [kcal/mol]      -0.16325479 [kJ/mol]
      Disp21                        0.01769406 [mEh]       0.01110319 [kcal/mol]       0.04645574 [kJ/mol]
      Disp22 (SDQ)                 -0.00152710 [mEh]      -0.00095827 [kcal/mol]      -0.00400940 [kJ/mol]
      Disp22 (T)                   -0.00934269 [mEh]      -0.00586263 [kcal/mol]      -0.02452924 [kJ/mol]
      Est. Disp22 (T)              -0.00937678 [mEh]      -0.00588402 [kcal/mol]      -0.02461874 [kJ/mol]
      Exch-Disp20                   0.00000296 [mEh]       0.00000186 [kcal/mol]       0.00000777 [kJ/mol]

  Total HF                         -0.29848538 [mEh]      -0.18730240 [kcal/mol]      -0.78367326 [kJ/mol]
  Total SAPT0                      -0.36066289 [mEh]      -0.22631938 [kcal/mol]      -0.94692028 [kJ/mol]
  Total SAPT2                      -0.30314727 [mEh]      -0.19022778 [kcal/mol]      -0.79591304 [kJ/mol]
  Total SAPT2+                     -0.29635709 [mEh]      -0.18596688 [kcal/mol]      -0.77808544 [kJ/mol]

  Special recipe for scaled SAPT0 (see Manual):
    Electrostatics sSAPT0          -0.29247106 [mEh]      -0.18352836 [kcal/mol]      -0.76788266 [kJ/mol]
    Exchange sSAPT0                 0.00000313 [mEh]       0.00000196 [kcal/mol]       0.00000821 [kJ/mol]
    Induction sSAPT0               -0.00601745 [mEh]      -0.00377600 [kcal/mol]      -0.01579880 [kJ/mol]
    Dispersion sSAPT0              -0.06217751 [mEh]      -0.03901697 [kcal/mol]      -0.16324702 [kJ/mol]
  Total sSAPT0                     -0.36066289 [mEh]      -0.22631938 [kcal/mol]      -0.94692028 [kJ/mol]
  --------------------------------------------------------------------------------------------------------

*** Psi4 exiting successfully. Buy a developer a beer!
