                               Psi4 1.4a2.dev224

  ==> Input File <==

--------------------------------------------------------------------------
#Generated by lconvert.py for sapt job

memory 20 GB

molecule  {
0 1
 Cl       0.345460    1.418920    1.445490
 Cl      -0.362080   -1.434280    1.443480
  C      -0.013030   -0.007170    2.429450
  H      -0.885410    0.208440    3.032030
  H       0.853360   -0.222190    3.040790
--
0 1
 Cl      -0.358780   -1.408920   -4.193670
 Cl       0.344100    1.446450   -4.191290
  C       0.017470    0.012010   -3.210390
  H       0.898430   -0.206410   -2.622150
  H      -0.832270    0.221690   -2.575120
units angstrom
no_reorient
symmetry c1
}

set {
scf_type DF
basis aug-cc-pvdz
freeze_core True
guess SAD
}
energy('sapt2+')
--------------------------------------------------------------------------

  //              Dimer HF             //
    Molecular point group: c1
  Charge       = 0
  Multiplicity = 1
  Basis Set: AUG-CC-PVDZ
    Blend: AUG-CC-PVDZ
  Basis Set: (AUG-CC-PVDZ AUX)
    Blend: AUG-CC-PVDZ-JKFIT
  @DF-RHF Final Energy: -1916.08006375841342
    Total Energy =                      -1916.0800637584134165
  //            Monomer A HF           //
    Molecular point group: c1
  Multiplicity = 1
  Basis Set: AUG-CC-PVDZ
    Blend: AUG-CC-PVDZ
  Basis Set: (AUG-CC-PVDZ AUX)
    Blend: AUG-CC-PVDZ-JKFIT
  @DF-RHF Final Energy:  -958.03956544025471
    Total Energy =                       -958.0395654402545915
  //            Monomer B HF           //
    Molecular point group: c1

    Geometry (in Angstrom), charge = 0, multiplicity = 1:

       Center              X                  Y                   Z               Mass
    ------------   -----------------  -----------------  -----------------  -----------------
      Gh(CL)          0.351456592822     1.413947706564     2.640661666580    34.968852682000
      Gh(CL)         -0.356083407178    -1.439252293436     2.638651666580    34.968852682000
      Gh(C)          -0.007033407178    -0.012142293436     3.624621666580    12.000000000000
      Gh(H)          -0.879413407178     0.203467706564     4.227201666580     1.007825032230
      Gh(H)           0.859356592822    -0.227162293436     4.235961666580     1.007825032230
         CL          -0.352783407178    -1.413892293436    -2.998498333420    34.968852682000
         CL           0.350096592822     1.441477706564    -2.996118333420    34.968852682000
         C            0.023466592822     0.007037706564    -2.015218333420    12.000000000000
         H            0.904426592822    -0.211382293436    -1.426978333420     1.007825032230
         H           -0.826273407178     0.216717706564    -1.379948333420     1.007825032230

  Charge       = 0
  Multiplicity = 1
  Basis Set: AUG-CC-PVDZ
    Blend: AUG-CC-PVDZ
  Basis Set: (AUG-CC-PVDZ AUX)
    Blend: AUG-CC-PVDZ-JKFIT

    Orbital Energies [Eh]
    ---------------------

    Doubly Occupied:

       1A   -104.848660     2A   -104.848638     3A    -11.371976
       4A    -10.575273     5A    -10.575241     6A     -8.042997
       7A     -8.042969     8A     -8.039517     9A     -8.039490
      10A     -8.039404    11A     -8.039377    12A     -1.197658
      13A     -1.100252    14A     -0.899421    15A     -0.678570
      16A     -0.619788    17A     -0.588090    18A     -0.474896
      19A     -0.472796    20A     -0.448877    21A     -0.447295

  @DF-RHF Final Energy:  -958.03945056782413

   => Energetics <=

    Nuclear Repulsion Energy =            134.5678677692196175
    One-Electron Energy =               -1590.4322676491290167
    Two-Electron Energy =                 497.8249493120852094
    Total Energy =                       -958.0394505678241330

  Dipole Moment: [D]
     X:     0.0475      Y:    -0.0122      Z:     1.8681     Total:     1.8688

    SAPT Results
  --------------------------------------------------------------------------------------------------------
    Electrostatics                 -0.85712271 [mEh]      -0.53785262 [kcal/mol]      -2.25037537 [kJ/mol]
      Elst10,r                     -1.02550760 [mEh]      -0.64351574 [kcal/mol]      -2.69246984 [kJ/mol]
      Elst12,r                      0.16838489 [mEh]       0.10566312 [kcal/mol]       0.44209448 [kJ/mol]

    Exchange                        0.06994866 [mEh]       0.04389345 [kcal/mol]       0.18365019 [kJ/mol]
      Exch10                        0.05752286 [mEh]       0.03609614 [kcal/mol]       0.15102624 [kJ/mol]
      Exch10(S^2)                   0.05751884 [mEh]       0.03609362 [kcal/mol]       0.15101570 [kJ/mol]
      Exch11(S^2)                  -0.00009520 [mEh]      -0.00005974 [kcal/mol]      -0.00024995 [kJ/mol]
      Exch12(S^2)                   0.01252101 [mEh]       0.00785705 [kcal/mol]       0.03287390 [kJ/mol]

    Induction                      -0.07274614 [mEh]      -0.04564889 [kcal/mol]      -0.19099497 [kJ/mol]
      Ind20,r                      -0.08163361 [mEh]      -0.05122586 [kcal/mol]      -0.21432901 [kJ/mol]
      Ind22                         0.00801997 [mEh]       0.00503261 [kcal/mol]       0.02105644 [kJ/mol]
      Exch-Ind20,r                  0.01018417 [mEh]       0.00639066 [kcal/mol]       0.02673854 [kJ/mol]
      Exch-Ind22                   -0.00100053 [mEh]      -0.00062784 [kcal/mol]      -0.00262689 [kJ/mol]
      delta HF,r (2)               -0.00831615 [mEh]      -0.00521846 [kcal/mol]      -0.02183406 [kJ/mol]

    Dispersion                     -0.72440107 [mEh]      -0.45456853 [kcal/mol]      -1.90191475 [kJ/mol]
      Disp20                       -0.78256142 [mEh]      -0.49106470 [kcal/mol]      -2.05461473 [kJ/mol]
      Disp21                        0.17984427 [mEh]       0.11285398 [kcal/mol]       0.47218107 [kJ/mol]
      Disp22 (SDQ)                 -0.01421550 [mEh]      -0.00892036 [kcal/mol]      -0.03732280 [kJ/mol]
      Disp22 (T)                   -0.11240389 [mEh]      -0.07053450 [kcal/mol]      -0.29511636 [kJ/mol]
      Est. Disp22 (T)              -0.11545042 [mEh]      -0.07244623 [kcal/mol]      -0.30311504 [kJ/mol]
      Exch-Disp20                   0.00798200 [mEh]       0.00500878 [kcal/mol]       0.02095675 [kJ/mol]

  Total HF                         -1.04775033 [mEh]      -0.65747326 [kcal/mol]      -2.75086812 [kJ/mol]
  Total SAPT0                      -1.82232975 [mEh]      -1.14352918 [kcal/mol]      -4.78452610 [kJ/mol]
  Total SAPT2                      -1.63449961 [mEh]      -1.02566399 [kcal/mol]      -4.29137813 [kJ/mol]
  Total SAPT2+                     -1.58432126 [mEh]      -0.99417660 [kcal/mol]      -4.15963490 [kJ/mol]

  Special recipe for scaled SAPT0 (see Manual):
    Electrostatics sSAPT0          -1.02550760 [mEh]      -0.64351574 [kcal/mol]      -2.69246984 [kJ/mol]
    Exchange sSAPT0                 0.05752286 [mEh]       0.03609614 [kcal/mol]       0.15102624 [kJ/mol]
    Induction sSAPT0               -0.07976346 [mEh]      -0.05005232 [kcal/mol]      -0.20941892 [kJ/mol]
    Dispersion sSAPT0              -0.77457775 [mEh]      -0.48605487 [kcal/mol]      -2.03365359 [kJ/mol]
  Total sSAPT0                     -1.82232595 [mEh]      -1.14352680 [kcal/mol]      -4.78451612 [kJ/mol]
  --------------------------------------------------------------------------------------------------------

*** Psi4 exiting successfully. Buy a developer a beer!
