                               Psi4 1.4a2.dev224

  ==> Input File <==

--------------------------------------------------------------------------
#Generated by lconvert.py for sapt job

memory 20 GB

molecule  {
0 1
 Cl       0.345460    1.418920    1.445490
 Cl      -0.362080   -1.434280    1.443480
  C      -0.013030   -0.007170    2.429450
  H      -0.885410    0.208440    3.032030
  H       0.853360   -0.222190    3.040790
--
0 1
 Cl      -0.357260   -1.402840   -5.555950
 Cl       0.345620    1.452530   -5.553570
  C       0.018990    0.018080   -4.572670
  H       0.899950   -0.200340   -3.984420
  H      -0.830750    0.227770   -3.937400
units angstrom
no_reorient
symmetry c1
}

set {
scf_type DF
basis aug-cc-pvdz
freeze_core True
guess SAD
}
energy('sapt2+')
--------------------------------------------------------------------------

  //              Dimer HF             //
    Molecular point group: c1
  Charge       = 0
  Multiplicity = 1
  Basis Set: AUG-CC-PVDZ
    Blend: AUG-CC-PVDZ
  Basis Set: (AUG-CC-PVDZ AUX)
    Blend: AUG-CC-PVDZ-JKFIT
  @DF-RHF Final Energy: -1916.07944453585424
    Total Energy =                      -1916.0794445358542362
  //            Monomer A HF           //
    Molecular point group: c1
  Multiplicity = 1
  Basis Set: AUG-CC-PVDZ
    Blend: AUG-CC-PVDZ
  Basis Set: (AUG-CC-PVDZ AUX)
    Blend: AUG-CC-PVDZ-JKFIT
  @DF-RHF Final Energy:  -958.03948431194135
    Total Energy =                       -958.0394843119413508
  //            Monomer B HF           //
    Molecular point group: c1

    Geometry (in Angstrom), charge = 0, multiplicity = 1:

       Center              X                  Y                   Z               Mass
    ------------   -----------------  -----------------  -----------------  -----------------
      Gh(CL)          0.350696592822     1.410908481269     3.321801606557    34.968852682000
      Gh(CL)         -0.356843407178    -1.442291518731     3.319791606557    34.968852682000
      Gh(C)          -0.007793407178    -0.015181518731     4.305761606557    12.000000000000
      Gh(H)          -0.880173407178     0.200428481269     4.908341606557     1.007825032230
      Gh(H)           0.858596592822    -0.230201518731     4.917101606557     1.007825032230
         CL          -0.352023407178    -1.410851518731    -3.679638393443    34.968852682000
         CL           0.350856592822     1.444518481269    -3.677258393443    34.968852682000
         C            0.024226592822     0.010068481269    -2.696358393443    12.000000000000
         H            0.905186592822    -0.208351518731    -2.108108393443     1.007825032230
         H           -0.825513407178     0.219758481269    -2.061088393443     1.007825032230

  Charge       = 0
  Multiplicity = 1
  Basis Set: AUG-CC-PVDZ
    Blend: AUG-CC-PVDZ
  Basis Set: (AUG-CC-PVDZ AUX)
    Blend: AUG-CC-PVDZ-JKFIT

    Orbital Energies [Eh]
    ---------------------

    Doubly Occupied:

       1A   -104.848654     2A   -104.848633     3A    -11.371983
       4A    -10.575271     5A    -10.575240     6A     -8.042994
       7A     -8.042968     8A     -8.039514     9A     -8.039489
      10A     -8.039400    11A     -8.039375    12A     -1.197663
      13A     -1.100256    14A     -0.899425    15A     -0.678572
      16A     -0.619793    17A     -0.588091    18A     -0.474900
      19A     -0.472797    20A     -0.448884    21A     -0.447299

  @DF-RHF Final Energy:  -958.03943056132653

   => Energetics <=

    Nuclear Repulsion Energy =            134.5678209670033993
    One-Electron Energy =               -1590.4321017889899395
    Two-Electron Energy =                 497.8248502606600141
    Total Energy =                       -958.0394305613265260

  Dipole Moment: [D]
     X:     0.0475      Y:    -0.0123      Z:     1.8699     Total:     1.8706

    SAPT Results
  --------------------------------------------------------------------------------------------------------
    Electrostatics                 -0.41574352 [mEh]      -0.26088300 [kcal/mol]      -1.09153446 [kJ/mol]
      Elst10,r                     -0.51087946 [mEh]      -0.32058170 [kcal/mol]      -1.34131384 [kJ/mol]
      Elst12,r                      0.09513594 [mEh]       0.05969870 [kcal/mol]       0.24977938 [kJ/mol]

    Exchange                        0.00073043 [mEh]       0.00045835 [kcal/mol]       0.00191775 [kJ/mol]
      Exch10                        0.00057883 [mEh]       0.00036322 [kcal/mol]       0.00151973 [kJ/mol]
      Exch10(S^2)                   0.00057883 [mEh]       0.00036322 [kcal/mol]       0.00151973 [kJ/mol]
      Exch11(S^2)                  -0.00001112 [mEh]      -0.00000698 [kcal/mol]      -0.00002921 [kJ/mol]
      Exch12(S^2)                   0.00016272 [mEh]       0.00010211 [kcal/mol]       0.00042722 [kJ/mol]

    Induction                      -0.01637917 [mEh]      -0.01027808 [kcal/mol]      -0.04300350 [kJ/mol]
      Ind20,r                      -0.01827202 [mEh]      -0.01146586 [kcal/mol]      -0.04797318 [kJ/mol]
      Ind22                         0.00300861 [mEh]       0.00188793 [kcal/mol]       0.00789909 [kJ/mol]
      Exch-Ind20,r                  0.00015676 [mEh]       0.00009837 [kcal/mol]       0.00041157 [kJ/mol]
      Exch-Ind22                   -0.00002581 [mEh]      -0.00001620 [kcal/mol]      -0.00006777 [kJ/mol]
      delta HF,r (2)               -0.00124670 [mEh]      -0.00078232 [kcal/mol]      -0.00327322 [kJ/mol]

    Dispersion                     -0.17153262 [mEh]      -0.10763835 [kcal/mol]      -0.45035884 [kJ/mol]
      Disp20                       -0.18974053 [mEh]      -0.11906398 [kcal/mol]      -0.49816369 [kJ/mol]
      Disp21                        0.05055720 [mEh]       0.03172512 [kcal/mol]       0.13273792 [kJ/mol]
      Disp22 (SDQ)                 -0.00404714 [mEh]      -0.00253962 [kcal/mol]      -0.01062577 [kJ/mol]
      Disp22 (T)                   -0.02822075 [mEh]      -0.01770879 [kcal/mol]      -0.07409358 [kJ/mol]
      Est. Disp22 (T)              -0.02840497 [mEh]      -0.01782439 [kcal/mol]      -0.07457725 [kJ/mol]
      Exch-Disp20                   0.00010282 [mEh]       0.00006452 [kcal/mol]       0.00026995 [kJ/mol]

  Total HF                         -0.52966259 [mEh]      -0.33236829 [kcal/mol]      -1.39062893 [kJ/mol]
  Total SAPT0                      -0.71930030 [mEh]      -0.45136775 [kcal/mol]      -1.88852267 [kJ/mol]
  Total SAPT2                      -0.62102997 [mEh]      -0.38970219 [kcal/mol]      -1.63051395 [kJ/mol]
  Total SAPT2+                     -0.60292488 [mEh]      -0.37834107 [kcal/mol]      -1.58297905 [kJ/mol]

  Special recipe for scaled SAPT0 (see Manual):
    Electrostatics sSAPT0          -0.51087946 [mEh]      -0.32058170 [kcal/mol]      -1.34131384 [kJ/mol]
    Exchange sSAPT0                 0.00057883 [mEh]       0.00036322 [kcal/mol]       0.00151973 [kJ/mol]
    Induction sSAPT0               -0.01936196 [mEh]      -0.01214981 [kcal/mol]      -0.05083482 [kJ/mol]
    Dispersion sSAPT0              -0.18963771 [mEh]      -0.11899946 [kcal/mol]      -0.49789374 [kJ/mol]
  Total sSAPT0                     -0.71930030 [mEh]      -0.45136775 [kcal/mol]      -1.88852267 [kJ/mol]
  --------------------------------------------------------------------------------------------------------

*** Psi4 exiting successfully. Buy a developer a beer!
