                               Psi4 1.4a2.dev224

  ==> Input File <==

--------------------------------------------------------------------------
#Generated by lconvert.py for sapt job

memory 20 GB

molecule  {
0 1
 Br       0.377720    1.549730    1.434410
 Br      -0.393010   -1.562580    1.428420
  C      -0.013170   -0.007090    2.485710
  H      -0.885770    0.207900    3.087330
  H       0.853110   -0.222740    3.096160
--
0 1
 Br      -0.392300   -1.525900   -7.272040
 Br       0.376090    1.588590   -7.269310
  C       0.017620    0.024090   -6.219820
  H       0.898790   -0.193810   -5.632920
  H      -0.833390    0.233490   -5.587370
units angstrom
no_reorient
symmetry c1
}

set {
scf_type DF
basis aug-cc-pvdz
freeze_core True
guess SAD
}
energy('sapt2+')
--------------------------------------------------------------------------

  //              Dimer HF             //
    Molecular point group: c1
  Charge       = 0
  Multiplicity = 1
  Basis Set: AUG-CC-PVDZ
    Blend: AUG-CC-PVDZ
  Basis Set: (AUG-CC-PVDZ AUX)
    Blend: AUG-CC-PVDZ-JKFIT
  @DF-RHF Final Energy: -10364.90927763700165
    Total Energy =                     -10364.9092776370016509
  //            Monomer A HF           //
    Molecular point group: c1
  Multiplicity = 1
  Basis Set: AUG-CC-PVDZ
    Blend: AUG-CC-PVDZ
  Basis Set: (AUG-CC-PVDZ AUX)
    Blend: AUG-CC-PVDZ-JKFIT
  @DF-RHF Final Energy: -5182.45452762935201
    Total Energy =                      -5182.4545276293520146
  //            Monomer B HF           //
    Molecular point group: c1

    Geometry (in Angstrom), charge = 0, multiplicity = 1:

       Center              X                  Y                   Z               Mass
    ------------   -----------------  -----------------  -----------------  -----------------
      Gh(BR)          0.384701376130     1.537619822517     4.261066304055    78.918337600000
      Gh(BR)         -0.386028623870    -1.574690177483     4.255076304055    78.918337600000
      Gh(C)          -0.006188623870    -0.019200177483     5.312366304055    12.000000000000
      Gh(H)          -0.878788623870     0.195789822517     5.913986304055     1.007825032230
      Gh(H)           0.860091376130    -0.234850177483     5.922816304055     1.007825032230
         BR          -0.385318623870    -1.538010177483    -4.445383695945    78.918337600000
         BR           0.383071376130     1.576479822517    -4.442653695945    78.918337600000
         C            0.024601376130     0.011979822517    -3.393163695945    12.000000000000
         H            0.905771376130    -0.205920177483    -2.806263695945     1.007825032230
         H           -0.826408623870     0.221379822517    -2.760713695945     1.007825032230

  Charge       = 0
  Multiplicity = 1
  Basis Set: AUG-CC-PVDZ
    Blend: AUG-CC-PVDZ
  Basis Set: (AUG-CC-PVDZ AUX)
    Blend: AUG-CC-PVDZ-JKFIT

    Orbital Energies [Eh]
    ---------------------

    Doubly Occupied:

       1A   -490.114814     2A   -490.114813     3A    -65.249214
       4A    -65.249212     5A    -58.606567     6A    -58.606566
       7A    -58.605079     8A    -58.605078     9A    -58.605044
      10A    -58.605043    11A    -11.362740    12A     -9.885215
      13A     -9.885203    14A     -7.498044    15A     -7.498041
      16A     -7.489204    17A     -7.489202    18A     -7.489014
      19A     -7.489012    20A     -3.099366    21A     -3.099347
      22A     -3.094937    23A     -3.094922    24A     -3.094735
      25A     -3.094731    26A     -3.084426    27A     -3.084426
      28A     -3.084423    29A     -3.084421    30A     -1.125439
      31A     -1.019380    32A     -0.879568    33A     -0.664240
      34A     -0.580766    35A     -0.542666    36A     -0.433604
      37A     -0.431384    38A     -0.416345    39A     -0.407473

  @DF-RHF Final Energy: -5182.45449863253907

   => Energetics <=

    Nuclear Repulsion Energy =            354.0726201490458607
    One-Electron Energy =               -7921.3268234267716252
    Two-Electron Energy =                2384.7997046451860115
    Total Energy =                      -5182.4544986325399805

  Dipole Moment: [D]
     X:     0.0422      Y:    -0.0118      Z:     1.7168     Total:     1.7174

    SAPT Results
  --------------------------------------------------------------------------------------------------------
    Electrostatics                 -0.20005924 [mEh]      -0.12553907 [kcal/mol]      -0.52525545 [kJ/mol]
      Elst10,r                     -0.25672765 [mEh]      -0.16109904 [kcal/mol]      -0.67403836 [kJ/mol]
      Elst12,r                      0.05666842 [mEh]       0.03555997 [kcal/mol]       0.14878291 [kJ/mol]

    Exchange                       -0.00002744 [mEh]      -0.00001722 [kcal/mol]      -0.00007204 [kJ/mol]
      Exch10                       -0.00000248 [mEh]      -0.00000156 [kcal/mol]      -0.00000651 [kJ/mol]
      Exch10(S^2)                  -0.00000248 [mEh]      -0.00000156 [kcal/mol]      -0.00000651 [kJ/mol]
      Exch11(S^2)                   0.00000056 [mEh]       0.00000035 [kcal/mol]       0.00000148 [kJ/mol]
      Exch12(S^2)                  -0.00002552 [mEh]      -0.00001602 [kcal/mol]      -0.00006701 [kJ/mol]

    Induction                       0.00677251 [mEh]       0.00424981 [kcal/mol]       0.01778122 [kJ/mol]
      Ind20,r                      -0.00561233 [mEh]      -0.00352179 [kcal/mol]      -0.01473516 [kJ/mol]
      Ind22                         0.00142161 [mEh]       0.00089207 [kcal/mol]       0.00373243 [kJ/mol]
      Exch-Ind20,r                  0.00001626 [mEh]       0.00001020 [kcal/mol]       0.00004269 [kJ/mol]
      Exch-Ind22                   -0.00000412 [mEh]      -0.00000258 [kcal/mol]      -0.00001081 [kJ/mol]
      delta HF,r (2)                0.01095109 [mEh]       0.00687191 [kcal/mol]       0.02875208 [kJ/mol]

    Dispersion                     -0.06694131 [mEh]      -0.04200631 [kcal/mol]      -0.17575439 [kJ/mol]
      Disp20                       -0.07649217 [mEh]      -0.04799956 [kcal/mol]      -0.20083016 [kJ/mol]
      Disp21                        0.02438590 [mEh]       0.01530238 [kcal/mol]       0.06402517 [kJ/mol]
      Disp22 (SDQ)                 -0.00325908 [mEh]      -0.00204510 [kcal/mol]      -0.00855670 [kJ/mol]
      Disp22 (T)                   -0.01155028 [mEh]      -0.00724791 [kcal/mol]      -0.03032526 [kJ/mol]
      Est. Disp22 (T)              -0.01157999 [mEh]      -0.00726656 [kcal/mol]      -0.03040327 [kJ/mol]
      Exch-Disp20                   0.00000403 [mEh]       0.00000253 [kcal/mol]       0.00001057 [kJ/mol]

  Total HF                         -0.25137511 [mEh]      -0.15774026 [kcal/mol]      -0.65998526 [kJ/mol]
  Total SAPT0                      -0.32786325 [mEh]      -0.20573730 [kcal/mol]      -0.86080485 [kJ/mol]
  Total SAPT2                      -0.26980230 [mEh]      -0.16930350 [kcal/mol]      -0.70836585 [kJ/mol]
  Total SAPT2+                     -0.26025547 [mEh]      -0.16331278 [kcal/mol]      -0.68330065 [kJ/mol]

  Special recipe for scaled SAPT0 (see Manual):
    Electrostatics sSAPT0          -0.25672765 [mEh]      -0.16109904 [kcal/mol]      -0.67403836 [kJ/mol]
    Exchange sSAPT0                -0.00000248 [mEh]      -0.00000156 [kcal/mol]      -0.00000651 [kJ/mol]
    Induction sSAPT0                0.00535502 [mEh]       0.00336033 [kcal/mol]       0.01405961 [kJ/mol]
    Dispersion sSAPT0              -0.07648814 [mEh]      -0.04799703 [kcal/mol]      -0.20081959 [kJ/mol]
  Total sSAPT0                     -0.32786325 [mEh]      -0.20573730 [kcal/mol]      -0.86080485 [kJ/mol]
  --------------------------------------------------------------------------------------------------------

*** Psi4 exiting successfully. Buy a developer a beer!
