                               Psi4 1.4a2.dev224

  ==> Input File <==

--------------------------------------------------------------------------
#Generated by lconvert.py for sapt job

memory 20 GB

molecule  {
0 1
 Br       0.377720    1.549730    1.434410
 Br      -0.393010   -1.562580    1.428420
  C      -0.013170   -0.007090    2.485710
  H      -0.885770    0.207900    3.087330
  H       0.853110   -0.222740    3.096160
--
0 1
 Br      -0.393060   -1.538420   -4.343690
 Br       0.375320    1.576070   -4.340960
  C       0.016860    0.011570   -3.291470
  H       0.898030   -0.206330   -2.704570
  H      -0.834150    0.220980   -2.659020
units angstrom
no_reorient
symmetry c1
}

set {
scf_type DF
basis aug-cc-pvdz
freeze_core True
guess SAD
}
energy('sapt2+')
--------------------------------------------------------------------------

  //              Dimer HF             //
    Molecular point group: c1
  Charge       = 0
  Multiplicity = 1
  Basis Set: AUG-CC-PVDZ
    Blend: AUG-CC-PVDZ
  Basis Set: (AUG-CC-PVDZ AUX)
    Blend: AUG-CC-PVDZ-JKFIT
  @DF-RHF Final Energy: -10364.91021115427247
    Total Energy =                     -10364.9102111542724742
  //            Monomer A HF           //
    Molecular point group: c1
  Multiplicity = 1
  Basis Set: AUG-CC-PVDZ
    Blend: AUG-CC-PVDZ
  Basis Set: (AUG-CC-PVDZ AUX)
    Blend: AUG-CC-PVDZ-JKFIT
  @DF-RHF Final Energy: -5182.45464687812000
    Total Energy =                      -5182.4546468781190924
  //            Monomer B HF           //
    Molecular point group: c1

    Geometry (in Angstrom), charge = 0, multiplicity = 1:

       Center              X                  Y                   Z               Mass
    ------------   -----------------  -----------------  -----------------  -----------------
      Gh(BR)          0.385083672239     1.543879793194     2.796891304055    78.918337600000
      Gh(BR)         -0.385646327761    -1.568430206806     2.790901304055    78.918337600000
      Gh(C)          -0.005806327761    -0.012940206806     3.848191304055    12.000000000000
      Gh(H)          -0.878406327761     0.202049793194     4.449811304055     1.007825032230
      Gh(H)           0.860473672239    -0.228590206806     4.458641304055     1.007825032230
         BR          -0.385696327761    -1.544270206806    -2.981208695945    78.918337600000
         BR           0.382683672239     1.570219793194    -2.978478695945    78.918337600000
         C            0.024223672239     0.005719793194    -1.928988695945    12.000000000000
         H            0.905393672239    -0.212180206806    -1.342088695945     1.007825032230
         H           -0.826786327761     0.215129793194    -1.296538695945     1.007825032230

  Charge       = 0
  Multiplicity = 1
  Basis Set: AUG-CC-PVDZ
    Blend: AUG-CC-PVDZ
  Basis Set: (AUG-CC-PVDZ AUX)
    Blend: AUG-CC-PVDZ-JKFIT

    Orbital Energies [Eh]
    ---------------------

    Doubly Occupied:

       1A   -490.114812     2A   -490.114811     3A    -65.249206
       4A    -65.249203     5A    -58.606559     6A    -58.606558
       7A    -58.605071     8A    -58.605070     9A    -58.605036
      10A    -58.605035    11A    -11.362765    12A     -9.885208
      13A     -9.885196    14A     -7.498036    15A     -7.498033
      16A     -7.489198    17A     -7.489196    18A     -7.489010
      19A     -7.489008    20A     -3.099364    21A     -3.099346
      22A     -3.094933    23A     -3.094917    24A     -3.094730
      25A     -3.094725    26A     -3.084423    27A     -3.084422
      28A     -3.084421    29A     -3.084417    30A     -1.125431
      31A     -1.019376    32A     -0.879561    33A     -0.664234
      34A     -0.580760    35A     -0.542662    36A     -0.433600
      37A     -0.431384    38A     -0.416344    39A     -0.407467

  @DF-RHF Final Energy: -5182.45454929570133

   => Energetics <=

    Nuclear Repulsion Energy =            354.0728253083161121
    One-Electron Energy =               -7921.3276801526426425
    Two-Electron Energy =                2384.8003055486251469
    Total Energy =                      -5182.4545492957013266

  Dipole Moment: [D]
     X:     0.0420      Y:    -0.0118      Z:     1.7151     Total:     1.7157

    SAPT Results
  --------------------------------------------------------------------------------------------------------
    Electrostatics                 -0.84918673 [mEh]      -0.53287272 [kcal/mol]      -2.22953945 [kJ/mol]
      Elst10,r                     -1.02844144 [mEh]      -0.64535675 [kcal/mol]      -2.70017264 [kJ/mol]
      Elst12,r                      0.17925471 [mEh]       0.11248403 [kcal/mol]       0.47063319 [kJ/mol]

    Exchange                        0.10420101 [mEh]       0.06538712 [kcal/mol]       0.27357972 [kJ/mol]
      Exch10                        0.08734175 [mEh]       0.05480777 [kcal/mol]       0.22931572 [kJ/mol]
      Exch10(S^2)                   0.08733296 [mEh]       0.05480226 [kcal/mol]       0.22929266 [kJ/mol]
      Exch11(S^2)                   0.00025344 [mEh]       0.00015904 [kcal/mol]       0.00066541 [kJ/mol]
      Exch12(S^2)                   0.01660582 [mEh]       0.01042031 [kcal/mol]       0.04359858 [kJ/mol]

    Induction                      -0.06515879 [mEh]      -0.04088776 [kcal/mol]      -0.17107438 [kJ/mol]
      Ind20,r                      -0.10288542 [mEh]      -0.06456158 [kcal/mol]      -0.27012564 [kJ/mol]
      Ind22                         0.01118013 [mEh]       0.00701564 [kcal/mol]       0.02935343 [kJ/mol]
      Exch-Ind20,r                  0.02262132 [mEh]       0.01419509 [kcal/mol]       0.05939226 [kJ/mol]
      Exch-Ind22                   -0.00245816 [mEh]      -0.00154252 [kcal/mol]      -0.00645391 [kJ/mol]
      delta HF,r (2)                0.00638335 [mEh]       0.00400561 [kcal/mol]       0.01675949 [kJ/mol]

    Dispersion                     -0.95577384 [mEh]      -0.59975714 [kcal/mol]      -2.50938387 [kJ/mol]
      Disp20                       -1.04918721 [mEh]      -0.65837491 [kcal/mol]      -2.75464063 [kJ/mol]
      Disp21                        0.26968232 [mEh]       0.16922821 [kcal/mol]       0.70805083 [kJ/mol]
      Disp22 (SDQ)                 -0.03452420 [mEh]      -0.02166426 [kcal/mol]      -0.09064327 [kJ/mol]
      Disp22 (T)                   -0.15102404 [mEh]      -0.09476902 [kcal/mol]      -0.39651357 [kJ/mol]
      Est. Disp22 (T)              -0.15522389 [mEh]      -0.09740446 [kcal/mol]      -0.40754026 [kJ/mol]
      Exch-Disp20                   0.01347913 [mEh]       0.00845828 [kcal/mol]       0.03538945 [kJ/mol]

  Total HF                         -1.01498045 [mEh]      -0.63690985 [kcal/mol]      -2.66483081 [kJ/mol]
  Total SAPT0                      -2.05068853 [mEh]      -1.28682648 [kcal/mol]      -5.38408199 [kJ/mol]
  Total SAPT2                      -1.84585258 [mEh]      -1.15828998 [kcal/mol]      -4.84628529 [kJ/mol]
  Total SAPT2+                     -1.76591835 [mEh]      -1.10813049 [kcal/mol]      -4.63641799 [kJ/mol]

  Special recipe for scaled SAPT0 (see Manual):
    Electrostatics sSAPT0          -1.02844144 [mEh]      -0.64535675 [kcal/mol]      -2.70017264 [kJ/mol]
    Exchange sSAPT0                 0.08734175 [mEh]       0.05480777 [kcal/mol]       0.22931572 [kJ/mol]
    Induction sSAPT0               -0.07387393 [mEh]      -0.04635659 [kcal/mol]      -0.19395597 [kJ/mol]
    Dispersion sSAPT0              -1.03570401 [mEh]      -0.64991408 [kcal/mol]      -2.71924050 [kJ/mol]
  Total sSAPT0                     -2.05067763 [mEh]      -1.28681964 [kcal/mol]      -5.38405338 [kJ/mol]
  --------------------------------------------------------------------------------------------------------

*** Psi4 exiting successfully. Buy a developer a beer!
