                               Psi4 1.4a2.dev224

  ==> Input File <==

--------------------------------------------------------------------------
#Generated by lconvert.py for sapt job

memory 20 GB

molecule  {
0 1
 Br       0.377720    1.549730    1.434410
 Br      -0.393010   -1.562580    1.428420
  C      -0.013170   -0.007090    2.485710
  H      -0.885770    0.207900    3.087330
  H       0.853110   -0.222740    3.096160
--
0 1
 Br      -0.392680   -1.532160   -5.807870
 Br       0.375710    1.582330   -5.805130
  C       0.017240    0.017830   -4.755650
  H       0.898410   -0.200070   -4.168750
  H      -0.833770    0.227230   -4.123200
units angstrom
no_reorient
symmetry c1
}

set {
scf_type DF
basis aug-cc-pvdz
freeze_core True
guess SAD
}
energy('sapt2+')
--------------------------------------------------------------------------

  //              Dimer HF             //
    Molecular point group: c1
  Charge       = 0
  Multiplicity = 1
  Basis Set: AUG-CC-PVDZ
    Blend: AUG-CC-PVDZ
  Basis Set: (AUG-CC-PVDZ AUX)
    Blend: AUG-CC-PVDZ-JKFIT
  @DF-RHF Final Energy: -10364.90954669172424
    Total Energy =                     -10364.9095466917242447
  //            Monomer A HF           //
    Molecular point group: c1
  Multiplicity = 1
  Basis Set: AUG-CC-PVDZ
    Blend: AUG-CC-PVDZ
  Basis Set: (AUG-CC-PVDZ AUX)
    Blend: AUG-CC-PVDZ-JKFIT
  @DF-RHF Final Energy: -5182.45455777163352
    Total Energy =                      -5182.4545577716335174
  //            Monomer B HF           //
    Molecular point group: c1

    Geometry (in Angstrom), charge = 0, multiplicity = 1:

       Center              X                  Y                   Z               Mass
    ------------   -----------------  -----------------  -----------------  -----------------
      Gh(BR)          0.384891376130     1.540749822517     3.528979007946    78.918337600000
      Gh(BR)         -0.385838623870    -1.571560177483     3.522989007946    78.918337600000
      Gh(C)          -0.005998623870    -0.016070177483     4.580279007946    12.000000000000
      Gh(H)          -0.878598623870     0.198919822517     5.181899007946     1.007825032230
      Gh(H)           0.860281376130    -0.231720177483     5.190729007946     1.007825032230
         BR          -0.385508623870    -1.541140177483    -3.713300992054    78.918337600000
         BR           0.382881376130     1.573349822517    -3.710560992054    78.918337600000
         C            0.024411376130     0.008849822517    -2.661080992054    12.000000000000
         H            0.905581376130    -0.209050177483    -2.074180992054     1.007825032230
         H           -0.826598623870     0.218249822517    -2.028630992054     1.007825032230

  Charge       = 0
  Multiplicity = 1
  Basis Set: AUG-CC-PVDZ
    Blend: AUG-CC-PVDZ
  Basis Set: (AUG-CC-PVDZ AUX)
    Blend: AUG-CC-PVDZ-JKFIT

    Orbital Energies [Eh]
    ---------------------

    Doubly Occupied:

       1A   -490.114812     2A   -490.114811     3A    -65.249212
       4A    -65.249209     5A    -58.606564     6A    -58.606563
       7A    -58.605077     8A    -58.605076     9A    -58.605041
      10A    -58.605040    11A    -11.362753    12A     -9.885215
      13A     -9.885203    14A     -7.498043    15A     -7.498040
      16A     -7.489205    17A     -7.489203    18A     -7.489015
      19A     -7.489013    20A     -3.099367    21A     -3.099349
      22A     -3.094938    23A     -3.094922    24A     -3.094735
      25A     -3.094731    26A     -3.084427    27A     -3.084427
      28A     -3.084425    29A     -3.084422    30A     -1.125440
      31A     -1.019384    32A     -0.879567    33A     -0.664239
      34A     -0.580766    35A     -0.542668    36A     -0.433606
      37A     -0.431387    38A     -0.416347    39A     -0.407476

  @DF-RHF Final Energy: -5182.45451370314095

   => Energetics <=

    Nuclear Repulsion Energy =            354.0728254952991847
    One-Electron Energy =               -7921.3272343590415403
    Two-Electron Energy =                2384.7998951606009541
    Total Energy =                      -5182.4545137031418562

  Dipole Moment: [D]
     X:     0.0421      Y:    -0.0118      Z:     1.7170     Total:     1.7176

    SAPT Results
  --------------------------------------------------------------------------------------------------------
    Electrostatics                 -0.37204398 [mEh]      -0.23346112 [kcal/mol]      -0.97680133 [kJ/mol]
      Elst10,r                     -0.47027151 [mEh]      -0.29509983 [kcal/mol]      -1.23469769 [kJ/mol]
      Elst12,r                      0.09822754 [mEh]       0.06163871 [kcal/mol]       0.25789636 [kJ/mol]

    Exchange                        0.00089680 [mEh]       0.00056275 [kcal/mol]       0.00235455 [kJ/mol]
      Exch10                        0.00076025 [mEh]       0.00047706 [kcal/mol]       0.00199604 [kJ/mol]
      Exch10(S^2)                   0.00076025 [mEh]       0.00047706 [kcal/mol]       0.00199604 [kJ/mol]
      Exch11(S^2)                  -0.00001274 [mEh]      -0.00000800 [kcal/mol]      -0.00003346 [kJ/mol]
      Exch12(S^2)                   0.00014929 [mEh]       0.00009368 [kcal/mol]       0.00039197 [kJ/mol]

    Induction                      -0.00146399 [mEh]      -0.00091867 [kcal/mol]      -0.00384370 [kJ/mol]
      Ind20,r                      -0.01858640 [mEh]      -0.01166314 [kcal/mol]      -0.04879859 [kJ/mol]
      Ind22                         0.00429756 [mEh]       0.00269676 [kcal/mol]       0.01128323 [kJ/mol]
      Exch-Ind20,r                  0.00024156 [mEh]       0.00015158 [kcal/mol]       0.00063422 [kJ/mol]
      Exch-Ind22                   -0.00005585 [mEh]      -0.00003505 [kcal/mol]      -0.00014664 [kJ/mol]
      delta HF,r (2)                0.01263915 [mEh]       0.00793119 [kcal/mol]       0.03318408 [kJ/mol]

    Dispersion                     -0.21406427 [mEh]      -0.13432736 [kcal/mol]      -0.56202566 [kJ/mol]
      Disp20                       -0.24084378 [mEh]      -0.15113175 [kcal/mol]      -0.63233524 [kJ/mol]
      Disp21                        0.07195483 [mEh]       0.04515234 [kcal/mol]       0.18891739 [kJ/mol]
      Disp22 (SDQ)                 -0.00919307 [mEh]      -0.00576874 [kcal/mol]      -0.02413641 [kJ/mol]
      Disp22 (T)                   -0.03587302 [mEh]      -0.02251066 [kcal/mol]      -0.09418460 [kJ/mol]
      Est. Disp22 (T)              -0.03614149 [mEh]      -0.02267913 [kcal/mol]      -0.09488946 [kJ/mol]
      Exch-Disp20                   0.00015923 [mEh]       0.00009992 [kcal/mol]       0.00041806 [kJ/mol]

  Total HF                         -0.47521695 [mEh]      -0.29820314 [kcal/mol]      -1.24768193 [kJ/mol]
  Total SAPT0                      -0.71590149 [mEh]      -0.44923497 [kcal/mol]      -1.87959911 [kJ/mol]
  Total SAPT2                      -0.61329571 [mEh]      -0.38484887 [kcal/mol]      -1.61020766 [kJ/mol]
  Total SAPT2+                     -0.58667543 [mEh]      -0.36814439 [kcal/mol]      -1.54031614 [kJ/mol]

  Special recipe for scaled SAPT0 (see Manual):
    Electrostatics sSAPT0          -0.47027151 [mEh]      -0.29509983 [kcal/mol]      -1.23469769 [kJ/mol]
    Exchange sSAPT0                 0.00076025 [mEh]       0.00047706 [kcal/mol]       0.00199604 [kJ/mol]
    Induction sSAPT0               -0.00570569 [mEh]      -0.00358037 [kcal/mol]      -0.01498028 [kJ/mol]
    Dispersion sSAPT0              -0.24068454 [mEh]      -0.15103183 [kcal/mol]      -0.63191718 [kJ/mol]
  Total sSAPT0                     -0.71590149 [mEh]      -0.44923497 [kcal/mol]      -1.87959911 [kJ/mol]
  --------------------------------------------------------------------------------------------------------

*** Psi4 exiting successfully. Buy a developer a beer!
