                               Psi4 1.4a2.dev224

  ==> Input File <==

--------------------------------------------------------------------------
#Generated by lconvert.py for sapt job

memory 20 GB

molecule  {
1 1
  N      -0.635100   -0.241600    0.273160
  H      -0.701590   -1.189160    0.641240
  H      -1.171270   -0.218100   -0.592710
  H       0.365440   -0.049950    0.043150
  C      -1.152750    0.758200    1.257000
  H      -1.060650    1.744720    0.819000
  H      -2.190130    0.536310    1.477240
  H      -0.551780    0.692610    2.155940
--
0 1
  O       3.450510    0.802950   -0.460030
  H       3.795860    1.350050   -1.171770
  H       4.232070    0.448320   -0.025790
units angstrom
no_reorient
symmetry c1
}

set {
scf_type DF
basis aug-cc-pvdz
freeze_core True
guess SAD
}
energy('sapt2+')
--------------------------------------------------------------------------

  //              Dimer HF             //
    Molecular point group: c1
  Charge       = 1
  Multiplicity = 1
  Basis Set: AUG-CC-PVDZ
    Blend: AUG-CC-PVDZ
  Basis Set: (AUG-CC-PVDZ AUX)
    Blend: AUG-CC-PVDZ-JKFIT
  @DF-RHF Final Energy:  -171.64543448221335
    Total Energy =                       -171.6454344822133464
  //            Monomer A HF           //
    Molecular point group: c1
  Multiplicity = 1
  Basis Set: AUG-CC-PVDZ
    Blend: AUG-CC-PVDZ
  Basis Set: (AUG-CC-PVDZ AUX)
    Blend: AUG-CC-PVDZ-JKFIT
  @DF-RHF Final Energy:   -95.59155650494691
    Total Energy =                        -95.5915565049469080
  //            Monomer B HF           //
    Molecular point group: c1

    Geometry (in Angstrom), charge = 0, multiplicity = 1:

       Center              X                  Y                   Z               Mass
    ------------   -----------------  -----------------  -----------------  -----------------
      Gh(N)          -1.338317428648    -0.679052153886    -0.024947240871    14.003074004430
      Gh(H)          -1.404807428648    -1.626612153886     0.343132759129     1.007825032230
      Gh(H)          -1.874487428648    -0.655552153886    -0.890817240871     1.007825032230
      Gh(H)          -0.337777428648    -0.487402153886    -0.254957240871     1.007825032230
      Gh(C)          -1.855967428648     0.320747846114     0.958892759129    12.000000000000
      Gh(H)          -1.763867428648     1.307267846114     0.520892759129     1.007825032230
      Gh(H)          -2.893347428648     0.098857846114     1.179132759129     1.007825032230
      Gh(H)          -1.254997428648     0.255157846114     1.857832759129     1.007825032230
         O            2.747292571352     0.365497846114    -0.758137240871    15.994914619570
         H            3.092642571352     0.912597846114    -1.469877240871     1.007825032230
         H            3.528852571352     0.010867846114    -0.323897240871     1.007825032230

  Charge       = 0
  Multiplicity = 1
  Basis Set: AUG-CC-PVDZ
    Blend: AUG-CC-PVDZ
  Basis Set: (AUG-CC-PVDZ AUX)
    Blend: AUG-CC-PVDZ-JKFIT

    Orbital Energies [Eh]
    ---------------------

    Doubly Occupied:

       1A    -20.578035     2A     -1.354240     3A     -0.716969
       4A     -0.584597     5A     -0.509042

  @DF-RHF Final Energy:   -76.04118459063939

   => Energetics <=

    Nuclear Repulsion Energy =              9.1503026242079049
    One-Electron Energy =                -122.8972097725574315
    Two-Electron Energy =                  37.7057225577101178
    Total Energy =                        -76.0411845906394035

  Dipole Moment: [D]
     X:     1.9189      Y:     0.3278      Z:    -0.4725     Total:     2.0032

    SAPT Results
  --------------------------------------------------------------------------------------------------------
    Electrostatics                -10.89942271 [mEh]      -6.83949101 [kcal/mol]     -28.61643039 [kJ/mol]
      Elst10,r                    -11.68279236 [mEh]      -7.33106289 [kcal/mol]     -30.67316712 [kJ/mol]
      Elst12,r                      0.78336965 [mEh]       0.49157187 [kcal/mol]       2.05673672 [kJ/mol]

    Exchange                        0.09187592 [mEh]       0.05765301 [kcal/mol]       0.24122020 [kJ/mol]
      Exch10                        0.07005244 [mEh]       0.04395857 [kcal/mol]       0.18392265 [kJ/mol]
      Exch10(S^2)                   0.07004751 [mEh]       0.04395548 [kcal/mol]       0.18390971 [kJ/mol]
      Exch11(S^2)                  -0.00062334 [mEh]      -0.00039115 [kcal/mol]      -0.00163658 [kJ/mol]
      Exch12(S^2)                   0.02244682 [mEh]       0.01408560 [kcal/mol]       0.05893413 [kJ/mol]

    Induction                      -1.17685448 [mEh]      -0.73848734 [kcal/mol]      -3.08983102 [kJ/mol]
      Ind20,r                      -1.03355784 [mEh]      -0.64856734 [kcal/mol]      -2.71360574 [kJ/mol]
      Ind22                        -0.09787725 [mEh]      -0.06141890 [kcal/mol]      -0.25697669 [kJ/mol]
      Exch-Ind20,r                  0.01762921 [mEh]       0.01106250 [kcal/mol]       0.04628549 [kJ/mol]
      Exch-Ind22                    0.00166947 [mEh]       0.00104761 [kcal/mol]       0.00438321 [kJ/mol]
      delta HF,r (2)               -0.06471807 [mEh]      -0.04061120 [kcal/mol]      -0.16991727 [kJ/mol]

    Dispersion                     -0.33428107 [mEh]      -0.20976454 [kcal/mol]      -0.87765482 [kJ/mol]
      Disp20                       -0.30757935 [mEh]      -0.19300896 [kcal/mol]      -0.80754947 [kJ/mol]
      Disp21                        0.01519640 [mEh]       0.00953589 [kcal/mol]       0.03989815 [kJ/mol]
      Disp22 (SDQ)                 -0.00139689 [mEh]      -0.00087656 [kcal/mol]      -0.00366753 [kJ/mol]
      Disp22 (T)                   -0.04282827 [mEh]      -0.02687514 [kcal/mol]      -0.11244560 [kJ/mol]
      Est. Disp22 (T)              -0.04472335 [mEh]      -0.02806432 [kcal/mol]      -0.11742113 [kJ/mol]
      Exch-Disp20                   0.00422211 [mEh]       0.00264942 [kcal/mol]       0.01108516 [kJ/mol]

  Total HF                        -12.69338663 [mEh]      -7.96522036 [kcal/mol]     -33.32648200 [kJ/mol]
  Total SAPT0                     -12.99674386 [mEh]      -8.15557990 [kcal/mol]     -34.12294631 [kJ/mol]
  Total SAPT2                     -12.28775851 [mEh]      -7.71068488 [kcal/mol]     -32.26150552 [kJ/mol]
  Total SAPT2+                    -12.31868234 [mEh]      -7.73008987 [kcal/mol]     -32.34269604 [kJ/mol]

  Special recipe for scaled SAPT0 (see Manual):
    Electrostatics sSAPT0         -11.68279236 [mEh]      -7.33106289 [kcal/mol]     -30.67316712 [kJ/mol]
    Exchange sSAPT0                 0.07005244 [mEh]       0.04395857 [kcal/mol]       0.18392265 [kJ/mol]
    Induction sSAPT0               -1.08064298 [mEh]      -0.67811371 [kcal/mol]      -2.83722776 [kJ/mol]
    Dispersion sSAPT0              -0.30335634 [mEh]      -0.19035898 [kcal/mol]      -0.79646197 [kJ/mol]
  Total sSAPT0                    -12.99673925 [mEh]      -8.15557701 [kcal/mol]     -34.12293420 [kJ/mol]
  --------------------------------------------------------------------------------------------------------

*** Psi4 exiting successfully. Buy a developer a beer!
