                               Psi4 1.4a2.dev224

  ==> Input File <==

--------------------------------------------------------------------------
#Generated by lconvert.py for sapt job

memory 20 GB

molecule  {
1 1
  N      -0.635100   -0.241600    0.273160
  H      -0.701590   -1.189160    0.641240
  H      -1.171270   -0.218100   -0.592710
  H       0.365440   -0.049950    0.043150
  C      -1.152750    0.758200    1.257000
  H      -1.060650    1.744720    0.819000
  H      -2.190130    0.536310    1.477240
  H      -0.551780    0.692610    2.155940
--
0 1
  O       2.476280    0.533610   -0.301130
  H       2.821630    1.080710   -1.012870
  H       3.257830    0.178990    0.133110
units angstrom
no_reorient
symmetry c1
}

set {
scf_type DF
basis aug-cc-pvdz
freeze_core True
guess SAD
}
energy('sapt2+')
--------------------------------------------------------------------------

  //              Dimer HF             //
    Molecular point group: c1
  Charge       = 1
  Multiplicity = 1
  Basis Set: AUG-CC-PVDZ
    Blend: AUG-CC-PVDZ
  Basis Set: (AUG-CC-PVDZ AUX)
    Blend: AUG-CC-PVDZ-JKFIT
  @DF-RHF Final Energy:  -171.65573116709118
    Total Energy =                       -171.6557311670911758
  //            Monomer A HF           //
    Molecular point group: c1
  Multiplicity = 1
  Basis Set: AUG-CC-PVDZ
    Blend: AUG-CC-PVDZ
  Basis Set: (AUG-CC-PVDZ AUX)
    Blend: AUG-CC-PVDZ-JKFIT
  @DF-RHF Final Energy:   -95.59165949857908
    Total Energy =                        -95.5916594985790766
  //            Monomer B HF           //
    Molecular point group: c1

    Geometry (in Angstrom), charge = 0, multiplicity = 1:

       Center              X                  Y                   Z               Mass
    ------------   -----------------  -----------------  -----------------  -----------------
      Gh(N)          -0.987813311492    -0.582150468906    -0.082115540171    14.003074004430
      Gh(H)          -1.054303311492    -1.529710468906     0.285964459829     1.007825032230
      Gh(H)          -1.523983311492    -0.558650468906    -0.947985540171     1.007825032230
      Gh(H)           0.012726688508    -0.390500468906    -0.312125540171     1.007825032230
      Gh(C)          -1.505463311492     0.417649531094     0.901724459829    12.000000000000
      Gh(H)          -1.413363311492     1.404169531094     0.463724459829     1.007825032230
      Gh(H)          -2.542843311492     0.195759531094     1.121964459829     1.007825032230
      Gh(H)          -0.904493311492     0.352059531094     1.800664459829     1.007825032230
         O            2.123566688508     0.193059531094    -0.656405540171    15.994914619570
         H            2.468916688508     0.740159531094    -1.368145540171     1.007825032230
         H            2.905116688508    -0.161560468906    -0.222165540171     1.007825032230

  Charge       = 0
  Multiplicity = 1
  Basis Set: AUG-CC-PVDZ
    Blend: AUG-CC-PVDZ
  Basis Set: (AUG-CC-PVDZ AUX)
    Blend: AUG-CC-PVDZ-JKFIT

    Orbital Energies [Eh]
    ---------------------

    Doubly Occupied:

       1A    -20.578017     2A     -1.354183     3A     -0.716906
       4A     -0.584486     5A     -0.508876

  @DF-RHF Final Energy:   -76.04140439718221

   => Energetics <=

    Nuclear Repulsion Energy =              9.1503586850104934
    One-Electron Energy =                -122.8985875111918205
    Two-Electron Energy =                  37.7068244289991270
    Total Energy =                        -76.0414043971822053

  Dipole Moment: [D]
     X:     1.9127      Y:     0.3269      Z:    -0.4709     Total:     1.9968

    SAPT Results
  --------------------------------------------------------------------------------------------------------
    Electrostatics                -20.25031289 [mEh]     -12.70726319 [kcal/mol]     -53.16718917 [kJ/mol]
      Elst10,r                    -21.54939349 [mEh]     -13.52244857 [kcal/mol]     -56.57792482 [kJ/mol]
      Elst12,r                      1.29908060 [mEh]       0.81518539 [kcal/mol]       3.41073565 [kJ/mol]

    Exchange                        4.22561569 [mEh]       2.65161388 [kcal/mol]      11.09435246 [kJ/mol]
      Exch10                        3.60396511 [mEh]       2.26152225 [kcal/mol]       9.46220909 [kJ/mol]
      Exch10(S^2)                   3.59454873 [mEh]       2.25561338 [kcal/mol]       9.43748639 [kJ/mol]
      Exch11(S^2)                   0.00180240 [mEh]       0.00113102 [kcal/mol]       0.00473221 [kJ/mol]
      Exch12(S^2)                   0.61984818 [mEh]       0.38896060 [kcal/mol]       1.62741117 [kJ/mol]

    Induction                      -5.11574185 [mEh]      -3.21017647 [kcal/mol]     -13.43137837 [kJ/mol]
      Ind20,r                      -4.58891933 [mEh]      -2.87959036 [kcal/mol]     -12.04820605 [kJ/mol]
      Ind22                        -0.48006518 [mEh]      -0.30124545 [kcal/mol]      -1.26041096 [kJ/mol]
      Exch-Ind20,r                  0.82365919 [mEh]       0.51685395 [kcal/mol]       2.16251691 [kJ/mol]
      Exch-Ind22                    0.08616628 [mEh]       0.05407016 [kcal/mol]       0.22622953 [kJ/mol]
      delta HF,r (2)               -0.95658280 [mEh]      -0.60026477 [kcal/mol]      -2.51150780 [kJ/mol]

    Dispersion                     -2.04025096 [mEh]      -1.28027681 [kcal/mol]      -5.35667815 [kJ/mol]
      Disp20                       -1.98034134 [mEh]      -1.24268295 [kcal/mol]      -5.19938546 [kJ/mol]
      Disp21                        0.06155235 [mEh]       0.03862468 [kcal/mol]       0.16160567 [kJ/mol]
      Disp22 (SDQ)                 -0.01693786 [mEh]      -0.01062867 [kcal/mol]      -0.04447034 [kJ/mol]
      Disp22 (T)                   -0.24899995 [mEh]      -0.15624983 [kcal/mol]      -0.65374928 [kJ/mol]
      Est. Disp22 (T)              -0.27787401 [mEh]      -0.17436857 [kcal/mol]      -0.72955811 [kJ/mol]
      Exch-Disp20                   0.17334990 [mEh]       0.10877870 [kcal/mol]       0.45513009 [kJ/mol]

  Total HF                        -22.66727133 [mEh]     -14.22392750 [kcal/mol]     -59.51291268 [kJ/mol]
  Total SAPT0                     -24.47426277 [mEh]     -15.35783175 [kcal/mol]     -64.25716805 [kJ/mol]
  Total SAPT2                     -22.94743049 [mEh]     -14.39973003 [kcal/mol]     -60.24847045 [kJ/mol]
  Total SAPT2+                    -23.18069001 [mEh]     -14.54610259 [kcal/mol]     -60.86089323 [kJ/mol]

  Special recipe for scaled SAPT0 (see Manual):
    Electrostatics sSAPT0         -21.54939349 [mEh]     -13.52244857 [kcal/mol]     -56.57792482 [kJ/mol]
    Exchange sSAPT0                 3.60396511 [mEh]       2.26152225 [kcal/mol]       9.46220909 [kJ/mol]
    Induction sSAPT0               -4.71535293 [mEh]      -2.95892864 [kcal/mol]     -12.38015742 [kJ/mol]
    Dispersion sSAPT0              -1.80562553 [mEh]      -1.13304713 [kcal/mol]      -4.74066919 [kJ/mol]
  Total sSAPT0                    -24.46640685 [mEh]     -15.35290209 [kcal/mol]     -64.23654234 [kJ/mol]
  --------------------------------------------------------------------------------------------------------

*** Psi4 exiting successfully. Buy a developer a beer!
