                               Psi4 1.4a2.dev224

  ==> Input File <==

--------------------------------------------------------------------------
#Generated by lconvert.py for sapt job

memory 20 GB

molecule  {
1 1
  N      -0.635100   -0.241600    0.273160
  H      -0.701590   -1.189160    0.641240
  H      -1.171270   -0.218100   -0.592710
  H       0.365440   -0.049950    0.043150
  C      -1.152750    0.758200    1.257000
  H      -1.060650    1.744720    0.819000
  H      -2.190130    0.536310    1.477240
  H      -0.551780    0.692610    2.155940
--
0 1
  O       2.963390    0.668280   -0.380580
  H       3.308740    1.215380   -1.092320
  H       3.744950    0.313650    0.053660
units angstrom
no_reorient
symmetry c1
}

set {
scf_type DF
basis aug-cc-pvdz
freeze_core True
guess SAD
}
energy('sapt2+')
--------------------------------------------------------------------------

  //              Dimer HF             //
    Molecular point group: c1
  Charge       = 1
  Multiplicity = 1
  Basis Set: AUG-CC-PVDZ
    Blend: AUG-CC-PVDZ
  Basis Set: (AUG-CC-PVDZ AUX)
    Blend: AUG-CC-PVDZ-JKFIT
  @DF-RHF Final Energy:  -171.64971945507540
    Total Energy =                       -171.6497194550753989
  //            Monomer A HF           //
    Molecular point group: c1
  Multiplicity = 1
  Basis Set: AUG-CC-PVDZ
    Blend: AUG-CC-PVDZ
  Basis Set: (AUG-CC-PVDZ AUX)
    Blend: AUG-CC-PVDZ-JKFIT
  @DF-RHF Final Energy:   -95.59159061080210
    Total Energy =                        -95.5915906108021005
  //            Monomer B HF           //
    Molecular point group: c1

    Geometry (in Angstrom), charge = 0, multiplicity = 1:

       Center              X                  Y                   Z               Mass
    ------------   -----------------  -----------------  -----------------  -----------------
      Gh(N)          -1.163063671854    -0.630601210735    -0.053531390521    14.003074004430
      Gh(H)          -1.229553671854    -1.578161210735     0.314548609479     1.007825032230
      Gh(H)          -1.699233671854    -0.607101210735    -0.919401390521     1.007825032230
      Gh(H)          -0.162523671854    -0.438951210735    -0.283541390521     1.007825032230
      Gh(C)          -1.680713671854     0.369198789265     0.930308609479    12.000000000000
      Gh(H)          -1.588613671854     1.355718789265     0.492308609479     1.007825032230
      Gh(H)          -2.718093671854     0.147308789265     1.150548609479     1.007825032230
      Gh(H)          -1.079743671854     0.303608789265     1.829248609479     1.007825032230
         O            2.435426328146     0.279278789265    -0.707271390521    15.994914619570
         H            2.780776328146     0.826378789265    -1.419011390521     1.007825032230
         H            3.216986328146    -0.075351210735    -0.273031390521     1.007825032230

  Charge       = 0
  Multiplicity = 1
  Basis Set: AUG-CC-PVDZ
    Blend: AUG-CC-PVDZ
  Basis Set: (AUG-CC-PVDZ AUX)
    Blend: AUG-CC-PVDZ-JKFIT

    Orbital Energies [Eh]
    ---------------------

    Doubly Occupied:

       1A    -20.578008     2A     -1.354235     3A     -0.716963
       4A     -0.584569     5A     -0.509005

  @DF-RHF Final Energy:   -76.04124137627011

   => Energetics <=

    Nuclear Repulsion Energy =              9.1503026242079013
    One-Electron Energy =                -122.8975286511903278
    Two-Electron Energy =                  37.7059846507123240
    Total Energy =                        -76.0412413762701078

  Dipole Moment: [D]
     X:     1.9177      Y:     0.3277      Z:    -0.4721     Total:     2.0019

    SAPT Results
  --------------------------------------------------------------------------------------------------------
    Electrostatics                -14.32450979 [mEh]      -8.98876560 [kcal/mol]     -37.60899526 [kJ/mol]
      Elst10,r                    -15.32469939 [mEh]      -9.61639405 [kcal/mol]     -40.23499271 [kJ/mol]
      Elst12,r                      1.00018960 [mEh]       0.62762845 [kcal/mol]       2.62599745 [kJ/mol]

    Exchange                        0.63050279 [mEh]       0.39564647 [kcal/mol]       1.65538484 [kJ/mol]
      Exch10                        0.50842798 [mEh]       0.31904337 [kcal/mol]       1.33487748 [kJ/mol]
      Exch10(S^2)                   0.50820478 [mEh]       0.31890332 [kcal/mol]       1.33429147 [kJ/mol]
      Exch11(S^2)                  -0.00209379 [mEh]      -0.00131387 [kcal/mol]      -0.00549725 [kJ/mol]
      Exch12(S^2)                   0.12416860 [mEh]       0.07791697 [kcal/mol]       0.32600461 [kJ/mol]

    Induction                      -2.25341339 [mEh]      -1.41403825 [kcal/mol]      -5.91633604 [kJ/mol]
      Ind20,r                      -1.96891287 [mEh]      -1.23551148 [kcal/mol]      -5.16938002 [kJ/mol]
      Ind22                        -0.19396794 [mEh]      -0.12171672 [kcal/mol]      -0.50926275 [kJ/mol]
      Exch-Ind20,r                  0.11928243 [mEh]       0.07485085 [kcal/mol]       0.31317596 [kJ/mol]
      Exch-Ind22                    0.01175114 [mEh]       0.00737395 [kcal/mol]       0.03085261 [kJ/mol]
      delta HF,r (2)               -0.22156615 [mEh]      -0.13903486 [kcal/mol]      -0.58172185 [kJ/mol]

    Dispersion                     -0.79027162 [mEh]      -0.49590293 [kcal/mol]      -2.07485784 [kJ/mol]
      Disp20                       -0.73047330 [mEh]      -0.45837891 [kcal/mol]      -1.91785737 [kJ/mol]
      Disp21                        0.02396280 [mEh]       0.01503688 [kcal/mol]       0.06291432 [kJ/mol]
      Disp22 (SDQ)                 -0.00593648 [mEh]      -0.00372520 [kcal/mol]      -0.01558622 [kJ/mol]
      Disp22 (T)                   -0.09742515 [mEh]      -0.06113521 [kcal/mol]      -0.25578971 [kJ/mol]
      Est. Disp22 (T)              -0.10501855 [mEh]      -0.06590014 [kcal/mol]      -0.27572618 [kJ/mol]
      Exch-Disp20                   0.02719391 [mEh]       0.01706444 [kcal/mol]       0.07139760 [kJ/mol]

  Total HF                        -16.88746800 [mEh]     -10.59704616 [kcal/mol]     -44.33804113 [kJ/mol]
  Total SAPT0                     -17.59074739 [mEh]     -11.03836064 [kcal/mol]     -46.18450091 [kJ/mol]
  Total SAPT2                     -16.65069978 [mEh]     -10.44847186 [kcal/mol]     -43.71640624 [kJ/mol]
  Total SAPT2+                    -16.73769201 [mEh]     -10.50306030 [kcal/mol]     -43.94480431 [kJ/mol]

  Special recipe for scaled SAPT0 (see Manual):
    Electrostatics sSAPT0         -15.32469939 [mEh]      -9.61639405 [kcal/mol]     -40.23499271 [kJ/mol]
    Exchange sSAPT0                 0.50842798 [mEh]       0.31904337 [kcal/mol]       1.33487748 [kJ/mol]
    Induction sSAPT0               -2.07103936 [mEh]      -1.29959682 [kcal/mol]      -5.43751309 [kJ/mol]
    Dispersion sSAPT0              -0.70324354 [mEh]      -0.44129198 [kcal/mol]      -1.84636566 [kJ/mol]
  Total sSAPT0                    -17.59055431 [mEh]     -11.03823948 [kcal/mol]     -46.18399398 [kJ/mol]
  --------------------------------------------------------------------------------------------------------

*** Psi4 exiting successfully. Buy a developer a beer!
