                               Psi4 1.4a2.dev224

  ==> Input File <==

--------------------------------------------------------------------------
#Generated by lconvert.py for sapt job

memory 20 GB

molecule  {
1 1
  C      -3.719510   -0.009370    0.031830
  C      -2.658060   -0.870710    0.104480
  N      -1.521490   -0.112430    0.004910
  C      -1.848690    1.171980   -0.125030
  N      -3.184320    1.244970   -0.109770
  H      -3.709720    2.103600   -0.191360
  H      -0.549000   -0.468430    0.025750
  H      -4.778050   -0.186570    0.068730
  H      -2.630340   -1.938370    0.216690
  H      -1.167960    1.997300   -0.223840
--
0 1
  O       1.546840   -1.175410    0.064350
  H       2.096070   -1.330570    0.837780
  H       2.070180   -1.490450   -0.677810
units angstrom
no_reorient
symmetry c1
}

set {
scf_type DF
basis aug-cc-pvdz
freeze_core True
guess SAD
}
energy('sapt2+')
--------------------------------------------------------------------------

  //              Dimer HF             //
    Molecular point group: c1
  Charge       = 1
  Multiplicity = 1
  Basis Set: AUG-CC-PVDZ
    Blend: AUG-CC-PVDZ
  Basis Set: (AUG-CC-PVDZ AUX)
    Blend: AUG-CC-PVDZ-JKFIT
  @DF-RHF Final Energy:  -301.28613259762972
    Total Energy =                       -301.2861325976297167
  //            Monomer A HF           //
    Molecular point group: c1
  Multiplicity = 1
  Basis Set: AUG-CC-PVDZ
    Blend: AUG-CC-PVDZ
  Basis Set: (AUG-CC-PVDZ AUX)
    Blend: AUG-CC-PVDZ-JKFIT
  @DF-RHF Final Energy:  -225.22468787420823
    Total Energy =                       -225.2246878742082288
  //            Monomer B HF           //
    Molecular point group: c1

    Geometry (in Angstrom), charge = 0, multiplicity = 1:

       Center              X                  Y                   Z               Mass
    ------------   -----------------  -----------------  -----------------  -----------------
      Gh(C)          -2.012490581087    -0.000611147287     0.034671301148    12.000000000000
      Gh(C)          -0.951040581087    -0.861951147287     0.107321301148    12.000000000000
      Gh(N)           0.185529418913    -0.103671147287     0.007751301148    14.003074004430
      Gh(C)          -0.141670581087     1.180738852713    -0.122188698852    12.000000000000
      Gh(N)          -1.477300581087     1.253728852713    -0.106928698852    14.003074004430
      Gh(H)          -2.002700581087     2.112358852713    -0.188518698852     1.007825032230
      Gh(H)           1.158019418913    -0.459671147287     0.028591301148     1.007825032230
      Gh(H)          -3.071030581087    -0.177811147287     0.071571301148     1.007825032230
      Gh(H)          -0.923320581087    -1.929611147287     0.219531301148     1.007825032230
      Gh(H)           0.539059418913     2.006058852713    -0.220998698852     1.007825032230
         O            3.253859418913    -1.166651147287     0.067191301148    15.994914619570
         H            3.803089418913    -1.321811147287     0.840621301148     1.007825032230
         H            3.777199418913    -1.481691147287    -0.674968698852     1.007825032230

  Charge       = 0
  Multiplicity = 1
  Basis Set: AUG-CC-PVDZ
    Blend: AUG-CC-PVDZ
  Basis Set: (AUG-CC-PVDZ AUX)
    Blend: AUG-CC-PVDZ-JKFIT

    Orbital Energies [Eh]
    ---------------------

    Doubly Occupied:

       1A    -20.577798     2A     -1.354300     3A     -0.717854
       4A     -0.584011     5A     -0.508837

  @DF-RHF Final Energy:   -76.04146950155905

   => Energetics <=

    Nuclear Repulsion Energy =              9.1556748085614057
    One-Electron Energy =                -122.9086848681752002
    Two-Electron Energy =                  37.7115405580547360
    Total Energy =                        -76.0414695015590638

  Dipole Moment: [D]
     X:     1.8225      Y:    -0.7991      Z:     0.0532     Total:     1.9907

    SAPT Results
  --------------------------------------------------------------------------------------------------------
    Electrostatics                -18.24925154 [mEh]     -11.45157823 [kcal/mol]     -47.91340332 [kJ/mol]
      Elst10,r                    -19.39275343 [mEh]     -12.16913650 [kcal/mol]     -50.91566713 [kJ/mol]
      Elst12,r                      1.14350189 [mEh]       0.71755827 [kcal/mol]       3.00226381 [kJ/mol]

    Exchange                        4.11240124 [mEh]       2.58057074 [kcal/mol]      10.79710798 [kJ/mol]
      Exch10                        3.46013134 [mEh]       2.17126520 [kcal/mol]       9.08457359 [kJ/mol]
      Exch10(S^2)                   3.45132332 [mEh]       2.16573808 [kcal/mol]       9.06144812 [kJ/mol]
      Exch11(S^2)                  -0.03637076 [mEh]      -0.02282300 [kcal/mol]      -0.09549143 [kJ/mol]
      Exch12(S^2)                   0.68864066 [mEh]       0.43212854 [kcal/mol]       1.80802582 [kJ/mol]

    Induction                      -4.37337488 [mEh]      -2.74433417 [kcal/mol]     -11.48229417 [kJ/mol]
      Ind20,r                      -3.88829395 [mEh]      -2.43994129 [kcal/mol]     -10.20871437 [kJ/mol]
      Ind22                        -0.40886631 [mEh]      -0.25656748 [kcal/mol]      -1.07347834 [kJ/mol]
      Exch-Ind20,r                  0.74264257 [mEh]       0.46601525 [kcal/mol]       1.94980780 [kJ/mol]
      Exch-Ind22                    0.07809120 [mEh]       0.04900297 [kcal/mol]       0.20502841 [kJ/mol]
      delta HF,r (2)               -0.89694839 [mEh]      -0.56284361 [kcal/mol]      -2.35493767 [kJ/mol]

    Dispersion                     -2.14298278 [mEh]      -1.34474200 [kcal/mol]      -5.62640052 [kJ/mol]
      Disp20                       -2.07351845 [mEh]      -1.30115247 [kcal/mol]      -5.44402194 [kJ/mol]
      Disp21                        0.12730843 [mEh]       0.07988725 [kcal/mol]       0.33424825 [kJ/mol]
      Disp22 (SDQ)                 -0.03777953 [mEh]      -0.02370701 [kcal/mol]      -0.09919013 [kJ/mol]
      Disp22 (T)                   -0.30643698 [mEh]      -0.19229211 [kcal/mol]      -0.80455019 [kJ/mol]
      Est. Disp22 (T)              -0.34055735 [mEh]      -0.21370296 [kcal/mol]      -0.89413319 [kJ/mol]
      Exch-Disp20                   0.18156411 [mEh]       0.11393320 [kcal/mol]       0.47669649 [kJ/mol]

  Total HF                        -19.97522186 [mEh]     -12.53464096 [kcal/mol]     -52.44493777 [kJ/mol]
  Total SAPT0                     -21.86717621 [mEh]     -13.72186023 [kcal/mol]     -57.41226322 [kJ/mol]
  Total SAPT2                     -20.40217952 [mEh]     -12.80256094 [kcal/mol]     -53.56591495 [kJ/mol]
  Total SAPT2+                    -20.65320796 [mEh]     -12.96008366 [kcal/mol]     -54.22499003 [kJ/mol]

  Special recipe for scaled SAPT0 (see Manual):
    Electrostatics sSAPT0         -19.39275343 [mEh]     -12.16913650 [kcal/mol]     -50.91566713 [kJ/mol]
    Exchange sSAPT0                 3.46013134 [mEh]       2.17126520 [kcal/mol]       9.08457359 [kJ/mol]
    Induction sSAPT0               -4.03689942 [mEh]      -2.53319263 [kcal/mol]     -10.59887796 [kJ/mol]
    Dispersion sSAPT0              -1.89056070 [mEh]      -1.18634475 [kcal/mol]      -4.96366643 [kJ/mol]
  Total sSAPT0                    -21.86008221 [mEh]     -13.71740868 [kcal/mol]     -57.39363793 [kJ/mol]
  --------------------------------------------------------------------------------------------------------

*** Psi4 exiting successfully. Buy a developer a beer!
