                               Psi4 1.4a2.dev224

  ==> Input File <==

--------------------------------------------------------------------------
#Generated by lconvert.py for sapt job

memory 20 GB

molecule  {
1 1
  C      -3.719510   -0.009370    0.031830
  C      -2.658060   -0.870710    0.104480
  N      -1.521490   -0.112430    0.004910
  C      -1.848690    1.171980   -0.125030
  N      -3.184320    1.244970   -0.109770
  H      -3.709720    2.103600   -0.191360
  H      -0.549000   -0.468430    0.025750
  H      -4.778050   -0.186570    0.068730
  H      -2.630340   -1.938370    0.216690
  H      -1.167960    1.997300   -0.223840
--
0 1
  O       2.514150   -1.501710    0.082160
  H       3.063380   -1.656870    0.855590
  H       3.037480   -1.816750   -0.659990
units angstrom
no_reorient
symmetry c1
}

set {
scf_type DF
basis aug-cc-pvdz
freeze_core True
guess SAD
}
energy('sapt2+')
--------------------------------------------------------------------------

  //              Dimer HF             //
    Molecular point group: c1
  Charge       = 1
  Multiplicity = 1
  Basis Set: AUG-CC-PVDZ
    Blend: AUG-CC-PVDZ
  Basis Set: (AUG-CC-PVDZ AUX)
    Blend: AUG-CC-PVDZ-JKFIT
  @DF-RHF Final Energy:  -301.27687075227192
    Total Energy =                       -301.2768707522719183
  //            Monomer A HF           //
    Molecular point group: c1
  Multiplicity = 1
  Basis Set: AUG-CC-PVDZ
    Blend: AUG-CC-PVDZ
  Basis Set: (AUG-CC-PVDZ AUX)
    Blend: AUG-CC-PVDZ-JKFIT
  @DF-RHF Final Energy:  -225.22459582201427
    Total Energy =                       -225.2245958220142654
  //            Monomer B HF           //
    Molecular point group: c1

    Geometry (in Angstrom), charge = 0, multiplicity = 1:

       Center              X                  Y                   Z               Mass
    ------------   -----------------  -----------------  -----------------  -----------------
      Gh(C)          -2.212612591003     0.066895494442     0.030986559915    12.000000000000
      Gh(C)          -1.151162591003    -0.794444505558     0.103636559915    12.000000000000
      Gh(N)          -0.014592591003    -0.036164505558     0.004066559915    14.003074004430
      Gh(C)          -0.341792591003     1.248245494442    -0.125873440085    12.000000000000
      Gh(N)          -1.677422591003     1.321235494442    -0.110613440085    14.003074004430
      Gh(H)          -2.202822591003     2.179865494442    -0.192203440085     1.007825032230
      Gh(H)           0.957897408997    -0.392164505558     0.024906559915     1.007825032230
      Gh(H)          -3.271152591003    -0.110304505558     0.067886559915     1.007825032230
      Gh(H)          -1.123442591003    -1.862104505558     0.215846559915     1.007825032230
      Gh(H)           0.338937408997     2.073565494442    -0.224683440085     1.007825032230
         O            4.021047408997    -1.425444505558     0.081316559915    15.994914619570
         H            4.570277408997    -1.580604505558     0.854746559915     1.007825032230
         H            4.544377408997    -1.740484505558    -0.660833440085     1.007825032230

  Charge       = 0
  Multiplicity = 1
  Basis Set: AUG-CC-PVDZ
    Blend: AUG-CC-PVDZ
  Basis Set: (AUG-CC-PVDZ AUX)
    Blend: AUG-CC-PVDZ-JKFIT

    Orbital Energies [Eh]
    ---------------------

    Doubly Occupied:

       1A    -20.577785     2A     -1.354360     3A     -0.717927
       4A     -0.584113     5A     -0.509009

  @DF-RHF Final Energy:   -76.04125333658388

   => Energetics <=

    Nuclear Repulsion Energy =              9.1557373594969249
    One-Electron Energy =                -122.9075922203438722
    Two-Electron Energy =                  37.7106015242630690
    Total Energy =                        -76.0412533365838783

  Dipole Moment: [D]
     X:     1.8287      Y:    -0.8020      Z:     0.0534     Total:     1.9975

    SAPT Results
  --------------------------------------------------------------------------------------------------------
    Electrostatics                 -9.52508803 [mEh]      -5.97708298 [kcal/mol]     -25.00811519 [kJ/mol]
      Elst10,r                    -10.23109587 [mEh]      -6.42010959 [kcal/mol]     -26.86173851 [kJ/mol]
      Elst12,r                      0.70600784 [mEh]       0.44302661 [kcal/mol]       1.85362333 [kJ/mol]

    Exchange                        0.08924678 [mEh]       0.05600320 [kcal/mol]       0.23431739 [kJ/mol]
      Exch10                        0.06689101 [mEh]       0.04197474 [kcal/mol]       0.17562232 [kJ/mol]
      Exch10(S^2)                   0.06688646 [mEh]       0.04197189 [kcal/mol]       0.17561039 [kJ/mol]
      Exch11(S^2)                  -0.00191750 [mEh]      -0.00120325 [kcal/mol]      -0.00503439 [kJ/mol]
      Exch12(S^2)                   0.02427327 [mEh]       0.01523170 [kcal/mol]       0.06372945 [kJ/mol]

    Induction                      -0.92587671 [mEh]      -0.58099641 [kcal/mol]      -2.43088897 [kJ/mol]
      Ind20,r                      -0.81618789 [mEh]      -0.51216564 [kcal/mol]      -2.14290102 [kJ/mol]
      Ind22                        -0.06979967 [mEh]      -0.04379996 [kcal/mol]      -0.18325902 [kJ/mol]
      Exch-Ind20,r                  0.01533895 [mEh]       0.00962534 [kcal/mol]       0.04027242 [kJ/mol]
      Exch-Ind22                    0.00131177 [mEh]       0.00082315 [kcal/mol]       0.00344406 [kJ/mol]
      delta HF,r (2)               -0.05653987 [mEh]      -0.03547930 [kcal/mol]      -0.14844540 [kJ/mol]

    Dispersion                     -0.37418453 [mEh]      -0.23480434 [kcal/mol]      -0.98242136 [kJ/mol]
      Disp20                       -0.34589349 [mEh]      -0.21705144 [kcal/mol]      -0.90814324 [kJ/mol]
      Disp21                        0.03547017 [mEh]       0.02225787 [kcal/mol]       0.09312693 [kJ/mol]
      Disp22 (SDQ)                 -0.00720733 [mEh]      -0.00452267 [kcal/mol]      -0.01892284 [kJ/mol]
      Disp22 (T)                   -0.05867835 [mEh]      -0.03682122 [kcal/mol]      -0.15405997 [kJ/mol]
      Est. Disp22 (T)              -0.06100335 [mEh]      -0.03828018 [kcal/mol]      -0.16016428 [kJ/mol]
      Exch-Disp20                   0.00444946 [mEh]       0.00279208 [kcal/mol]       0.01168207 [kJ/mol]

  Total HF                        -11.02159367 [mEh]      -6.91615445 [kcal/mol]     -28.93719020 [kJ/mol]
  Total SAPT0                     -11.36303770 [mEh]      -7.13041381 [kcal/mol]     -29.83365137 [kJ/mol]
  Total SAPT2                     -10.70316199 [mEh]      -6.71633555 [kcal/mol]     -28.10114793 [kJ/mol]
  Total SAPT2+                    -10.73590250 [mEh]      -6.73688053 [kcal/mol]     -28.18710812 [kJ/mol]

  Special recipe for scaled SAPT0 (see Manual):
    Electrostatics sSAPT0         -10.23109587 [mEh]      -6.42010959 [kcal/mol]     -26.86173851 [kJ/mol]
    Exchange sSAPT0                 0.06689101 [mEh]       0.04197474 [kcal/mol]       0.17562232 [kJ/mol]
    Induction sSAPT0               -0.85738568 [mEh]      -0.53801764 [kcal/mol]      -2.25106580 [kJ/mol]
    Dispersion sSAPT0              -0.34144312 [mEh]      -0.21425879 [kcal/mol]      -0.89645879 [kJ/mol]
  Total sSAPT0                    -11.36303367 [mEh]      -7.13041128 [kcal/mol]     -29.83364078 [kJ/mol]
  --------------------------------------------------------------------------------------------------------

*** Psi4 exiting successfully. Buy a developer a beer!
