                               Psi4 1.4a2.dev224

  ==> Input File <==

--------------------------------------------------------------------------
#Generated by lconvert.py for sapt job

memory 20 GB

molecule  {
1 1
  C      -3.719510   -0.009370    0.031830
  C      -2.658060   -0.870710    0.104480
  N      -1.521490   -0.112430    0.004910
  C      -1.848690    1.171980   -0.125030
  N      -3.184320    1.244970   -0.109770
  H      -3.709720    2.103600   -0.191360
  H      -0.549000   -0.468430    0.025750
  H      -4.778050   -0.186570    0.068730
  H      -2.630340   -1.938370    0.216690
  H      -1.167960    1.997300   -0.223840
--
0 1
  O       2.030500   -1.338560    0.073260
  H       2.579720   -1.493720    0.846690
  H       2.553830   -1.653600   -0.668900
units angstrom
no_reorient
symmetry c1
}

set {
scf_type DF
basis aug-cc-pvdz
freeze_core True
guess SAD
}
energy('sapt2+')
--------------------------------------------------------------------------

  //              Dimer HF             //
    Molecular point group: c1
  Charge       = 1
  Multiplicity = 1
  Basis Set: AUG-CC-PVDZ
    Blend: AUG-CC-PVDZ
  Basis Set: (AUG-CC-PVDZ AUX)
    Blend: AUG-CC-PVDZ-JKFIT
  @DF-RHF Final Energy:  -301.28069691941414
    Total Energy =                       -301.2806969194141402
  //            Monomer A HF           //
    Molecular point group: c1
  Multiplicity = 1
  Basis Set: AUG-CC-PVDZ
    Blend: AUG-CC-PVDZ
  Basis Set: (AUG-CC-PVDZ AUX)
    Blend: AUG-CC-PVDZ-JKFIT
  @DF-RHF Final Energy:  -225.22463177690148
    Total Energy =                       -225.2246317769014752
  //            Monomer B HF           //
    Molecular point group: c1

    Geometry (in Angstrom), charge = 0, multiplicity = 1:

       Center              X                  Y                   Z               Mass
    ------------   -----------------  -----------------  -----------------  -----------------
      Gh(C)          -2.112552446820     0.033142173578     0.032827953990    12.000000000000
      Gh(C)          -1.051102446820    -0.828197826422     0.105477953990    12.000000000000
      Gh(N)           0.085467553180    -0.069917826422     0.005907953990    14.003074004430
      Gh(C)          -0.241732446820     1.214492173578    -0.124032046010    12.000000000000
      Gh(N)          -1.577362446820     1.287482173578    -0.108772046010    14.003074004430
      Gh(H)          -2.102762446820     2.146112173578    -0.190362046010     1.007825032230
      Gh(H)           1.057957553180    -0.425917826422     0.026747953990     1.007825032230
      Gh(H)          -3.171092446820    -0.144057826422     0.069727953990     1.007825032230
      Gh(H)          -1.023382446820    -1.895857826422     0.217687953990     1.007825032230
      Gh(H)           0.438997553180     2.039812173578    -0.222842046010     1.007825032230
         O            3.637457553180    -1.296047826422     0.074257953990    15.994914619570
         H            4.186677553180    -1.451207826422     0.847687953990     1.007825032230
         H            4.160787553180    -1.611087826422    -0.667902046010     1.007825032230

  Charge       = 0
  Multiplicity = 1
  Basis Set: AUG-CC-PVDZ
    Blend: AUG-CC-PVDZ
  Basis Set: (AUG-CC-PVDZ AUX)
    Blend: AUG-CC-PVDZ-JKFIT

    Orbital Energies [Eh]
    ---------------------

    Doubly Occupied:

       1A    -20.577767     2A     -1.354358     3A     -0.717924
       4A     -0.584090     5A     -0.508973

  @DF-RHF Final Energy:   -76.04130830313507

   => Energetics <=

    Nuclear Repulsion Energy =              9.1557259365265935
    One-Electron Energy =                -122.9078424653902459
    Two-Electron Energy =                  37.7108082257285844
    Total Energy =                        -76.0413083031350681

  Dipole Moment: [D]
     X:     1.8275      Y:    -0.8014      Z:     0.0533     Total:     1.9962

    SAPT Results
  --------------------------------------------------------------------------------------------------------
    Electrostatics                -12.65928649 [mEh]      -7.94382220 [kcal/mol]     -33.23695210 [kJ/mol]
      Elst10,r                    -13.55383830 [mEh]      -8.50516194 [kcal/mol]     -35.58559755 [kJ/mol]
      Elst12,r                      0.89455181 [mEh]       0.56133973 [kcal/mol]       2.34864544 [kJ/mol]

    Exchange                        0.61266953 [mEh]       0.38445593 [kcal/mol]       1.60856362 [kJ/mol]
      Exch10                        0.48578553 [mEh]       0.30483502 [kcal/mol]       1.27542974 [kJ/mol]
      Exch10(S^2)                   0.48557805 [mEh]       0.30470483 [kcal/mol]       1.27488499 [kJ/mol]
      Exch11(S^2)                  -0.00935765 [mEh]      -0.00587201 [kcal/mol]      -0.02456850 [kJ/mol]
      Exch12(S^2)                   0.13624164 [mEh]       0.08549292 [kcal/mol]       0.35770239 [kJ/mol]

    Induction                      -1.82688841 [mEh]      -1.14638979 [kcal/mol]      -4.79649487 [kJ/mol]
      Ind20,r                      -1.59631303 [mEh]      -1.00170155 [kcal/mol]      -4.19111928 [kJ/mol]
      Ind22                        -0.14787763 [mEh]      -0.09279462 [kcal/mol]      -0.38825267 [kJ/mol]
      Exch-Ind20,r                  0.10552837 [mEh]       0.06622005 [kcal/mol]       0.27706469 [kJ/mol]
      Exch-Ind22                    0.00977583 [mEh]       0.00613443 [kcal/mol]       0.02566644 [kJ/mol]
      delta HF,r (2)               -0.19800195 [mEh]      -0.12424810 [kcal/mol]      -0.51985405 [kJ/mol]

    Dispersion                     -0.85626611 [mEh]      -0.53731509 [kcal/mol]      -2.24812635 [kJ/mol]
      Disp20                       -0.79101220 [mEh]      -0.49636765 [kcal/mol]      -2.07680224 [kJ/mol]
      Disp21                        0.05919172 [mEh]       0.03714337 [kcal/mol]       0.15540785 [kJ/mol]
      Disp22 (SDQ)                 -0.01636880 [mEh]      -0.01027158 [kcal/mol]      -0.04297629 [kJ/mol]
      Disp22 (T)                   -0.12908722 [mEh]      -0.08100346 [kcal/mol]      -0.33891846 [kJ/mol]
      Est. Disp22 (T)              -0.13683729 [mEh]      -0.08586670 [kcal/mol]      -0.35926627 [kJ/mol]
      Exch-Disp20                   0.02876047 [mEh]       0.01804747 [kcal/mol]       0.07551059 [kJ/mol]

  Total HF                        -14.75683938 [mEh]      -9.26005651 [kcal/mol]     -38.74407645 [kJ/mol]
  Total SAPT0                     -15.51909111 [mEh]      -9.73837670 [kcal/mol]     -40.74536810 [kJ/mol]
  Total SAPT2                     -14.63575711 [mEh]      -9.18407624 [kcal/mol]     -38.42617500 [kJ/mol]
  Total SAPT2+                    -14.72977148 [mEh]      -9.24307115 [kcal/mol]     -38.67300970 [kJ/mol]

  Special recipe for scaled SAPT0 (see Manual):
    Electrostatics sSAPT0         -13.55383830 [mEh]      -8.50516194 [kcal/mol]     -35.58559755 [kJ/mol]
    Exchange sSAPT0                 0.48578553 [mEh]       0.30483502 [kcal/mol]       1.27542974 [kJ/mol]
    Induction sSAPT0               -1.68865128 [mEh]      -1.05964468 [kcal/mol]      -4.43355333 [kJ/mol]
    Dispersion sSAPT0              -0.76221485 [mEh]      -0.47829704 [kcal/mol]      -2.00119481 [kJ/mol]
  Total sSAPT0                    -15.51891890 [mEh]      -9.73826863 [kcal/mol]     -40.74491595 [kJ/mol]
  --------------------------------------------------------------------------------------------------------

*** Psi4 exiting successfully. Buy a developer a beer!
