                               Psi4 1.4a2.dev224

  ==> Input File <==

--------------------------------------------------------------------------
#Generated by lconvert.py for sapt job

memory 20 GB

molecule  {
1 1
  C      -2.482940    0.145570    0.115880
  N      -3.741260    0.545110    0.294520
  N      -2.223000   -1.065030   -0.362490
  N      -1.472120    0.952660    0.413850
  H      -0.525470    0.627370    0.269800
  H      -1.631810    1.874140    0.777490
  H      -3.949510    1.458240    0.655420
  H      -4.513270   -0.056720    0.072690
  H      -2.962360   -1.701050   -0.598470
  H      -1.259910   -1.346150   -0.489510
--
0 1
  O       2.358110   -1.391480   -0.571200
  H       2.905950   -1.293200   -1.356530
  H       2.930840   -1.845580    0.055140
units angstrom
no_reorient
symmetry c1
}

set {
scf_type DF
basis aug-cc-pvdz
freeze_core True
guess SAD
}
energy('sapt2+')
--------------------------------------------------------------------------

  //              Dimer HF             //
    Molecular point group: c1
  Charge       = 1
  Multiplicity = 1
  Basis Set: AUG-CC-PVDZ
    Blend: AUG-CC-PVDZ
  Basis Set: (AUG-CC-PVDZ AUX)
    Blend: AUG-CC-PVDZ-JKFIT
  @DF-RHF Final Energy:  -280.61689128493316
    Total Energy =                       -280.6168912849331605
  //            Monomer A HF           //
    Molecular point group: c1
  Multiplicity = 1
  Basis Set: AUG-CC-PVDZ
    Blend: AUG-CC-PVDZ
  Basis Set: (AUG-CC-PVDZ AUX)
    Blend: AUG-CC-PVDZ-JKFIT
  @DF-RHF Final Energy:  -204.56482707764488
    Total Energy =                       -204.5648270776448783
  //            Monomer B HF           //
    Molecular point group: c1

    Geometry (in Angstrom), charge = 0, multiplicity = 1:

       Center              X                  Y                   Z               Mass
    ------------   -----------------  -----------------  -----------------  -----------------
      Gh(C)          -1.134277250849     0.360141383084     0.160984054163    12.000000000000
      Gh(N)          -2.392597250849     0.759681383084     0.339624054163    14.003074004430
      Gh(N)          -0.874337250849    -0.850458616916    -0.317385945837    14.003074004430
      Gh(N)          -0.123457250849     1.167231383084     0.458954054163    14.003074004430
      Gh(H)           0.823192749151     0.841941383084     0.314904054163     1.007825032230
      Gh(H)          -0.283147250849     2.088711383084     0.822594054163     1.007825032230
      Gh(H)          -2.600847250849     1.672811383084     0.700524054163     1.007825032230
      Gh(H)          -3.164607250849     0.157851383084     0.117794054163     1.007825032230
      Gh(H)          -1.613697250849    -1.486478616916    -0.553365945837     1.007825032230
      Gh(H)           0.088752749151    -1.131578616916    -0.444405945837     1.007825032230
         O            3.706772749151    -1.176908616916    -0.526095945837    15.994914619570
         H            4.254612749151    -1.078628616916    -1.311425945837     1.007825032230
         H            4.279502749151    -1.631008616916     0.100244054163     1.007825032230

  Charge       = 0
  Multiplicity = 1
  Basis Set: AUG-CC-PVDZ
    Blend: AUG-CC-PVDZ
  Basis Set: (AUG-CC-PVDZ AUX)
    Blend: AUG-CC-PVDZ-JKFIT

    Orbital Energies [Eh]
    ---------------------

    Doubly Occupied:

       1A    -20.578472     2A     -1.354366     3A     -0.715233
       4A     -0.585824     5A     -0.509180

  @DF-RHF Final Energy:   -76.04108834297180

   => Energetics <=

    Nuclear Repulsion Energy =              9.1451655061833463
    One-Electron Energy =                -122.8863558945412677
    Two-Electron Energy =                  37.7001020453861102
    Total Energy =                        -76.0410883429718183

  Dipole Moment: [D]
     X:     1.9033      Y:    -0.6044      Z:    -0.2700     Total:     2.0151

    SAPT Results
  --------------------------------------------------------------------------------------------------------
    Electrostatics                 -9.55039418 [mEh]      -5.99296283 [kcal/mol]     -25.07455647 [kJ/mol]
      Elst10,r                    -10.22589393 [mEh]      -6.41684532 [kcal/mol]     -26.84808081 [kJ/mol]
      Elst12,r                      0.67549975 [mEh]       0.42388249 [kcal/mol]       1.77352434 [kJ/mol]

    Exchange                        0.05082286 [mEh]       0.03189183 [kcal/mol]       0.13343541 [kJ/mol]
      Exch10                        0.03661332 [mEh]       0.02297521 [kcal/mol]       0.09612827 [kJ/mol]
      Exch10(S^2)                   0.03661213 [mEh]       0.02297446 [kcal/mol]       0.09612513 [kJ/mol]
      Exch11(S^2)                  -0.00069848 [mEh]      -0.00043830 [kcal/mol]      -0.00183386 [kJ/mol]
      Exch12(S^2)                   0.01490802 [mEh]       0.00935492 [kcal/mol]       0.03914100 [kJ/mol]

    Induction                      -0.85298829 [mEh]      -0.53525823 [kcal/mol]      -2.23952044 [kJ/mol]
      Ind20,r                      -0.75577323 [mEh]      -0.47425486 [kcal/mol]      -1.98428235 [kJ/mol]
      Ind22                        -0.06714340 [mEh]      -0.04213312 [kcal/mol]      -0.17628497 [kJ/mol]
      Exch-Ind20,r                  0.00831628 [mEh]       0.00521854 [kcal/mol]       0.02183438 [kJ/mol]
      Exch-Ind22                    0.00073882 [mEh]       0.00046362 [kcal/mol]       0.00193978 [kJ/mol]
      delta HF,r (2)               -0.03912675 [mEh]      -0.02455241 [kcal/mol]      -0.10272728 [kJ/mol]

    Dispersion                     -0.34497636 [mEh]      -0.21647594 [kcal/mol]      -0.90573532 [kJ/mol]
      Disp20                       -0.31461536 [mEh]      -0.19742412 [kcal/mol]      -0.82602252 [kJ/mol]
      Disp21                        0.02401720 [mEh]       0.01507102 [kcal/mol]       0.06305716 [kJ/mol]
      Disp22 (SDQ)                 -0.00540851 [mEh]      -0.00339389 [kcal/mol]      -0.01420003 [kJ/mol]
      Disp22 (T)                   -0.05008194 [mEh]      -0.03142689 [kcal/mol]      -0.13149013 [kJ/mol]
      Est. Disp22 (T)              -0.05180071 [mEh]      -0.03250544 [kcal/mol]      -0.13600275 [kJ/mol]
      Exch-Disp20                   0.00283101 [mEh]       0.00177649 [kcal/mol]       0.00743283 [kJ/mol]

  Total HF                        -10.97586432 [mEh]      -6.88745884 [kcal/mol]     -28.81712779 [kJ/mol]
  Total SAPT0                     -11.28764866 [mEh]      -7.08310647 [kcal/mol]     -29.63571749 [kJ/mol]
  Total SAPT2                     -10.66434395 [mEh]      -6.69197686 [kcal/mol]     -27.99923119 [kJ/mol]
  Total SAPT2+                    -10.69753597 [mEh]      -6.71280517 [kcal/mol]     -28.08637682 [kJ/mol]

  Special recipe for scaled SAPT0 (see Manual):
    Electrostatics sSAPT0         -10.22589393 [mEh]      -6.41684532 [kcal/mol]     -26.84808081 [kJ/mol]
    Exchange sSAPT0                 0.03661332 [mEh]       0.02297521 [kcal/mol]       0.09612827 [kJ/mol]
    Induction sSAPT0               -0.78658290 [mEh]      -0.49358822 [kcal/mol]      -2.06517311 [kJ/mol]
    Dispersion sSAPT0              -0.31178407 [mEh]      -0.19564746 [kcal/mol]      -0.81858896 [kJ/mol]
  Total sSAPT0                    -11.28764757 [mEh]      -7.08310579 [kcal/mol]     -29.63571462 [kJ/mol]
  --------------------------------------------------------------------------------------------------------

*** Psi4 exiting successfully. Buy a developer a beer!
