                               Psi4 1.4a2.dev224

  ==> Input File <==

--------------------------------------------------------------------------
#Generated by lconvert.py for sapt job

memory 20 GB

molecule  {
1 1
  C      -2.482940    0.145570    0.115880
  N      -3.741260    0.545110    0.294520
  N      -2.223000   -1.065030   -0.362490
  N      -1.472120    0.952660    0.413850
  H      -0.525470    0.627370    0.269800
  H      -1.631810    1.874140    0.777490
  H      -3.949510    1.458240    0.655420
  H      -4.513270   -0.056720    0.072690
  H      -2.962360   -1.701050   -0.598470
  H      -1.259910   -1.346150   -0.489510
--
0 1
  O       1.505050   -1.120640   -0.450130
  H       2.052890   -1.022360   -1.235470
  H       2.077770   -1.574740    0.176210
units angstrom
no_reorient
symmetry c1
}

set {
scf_type DF
basis aug-cc-pvdz
freeze_core True
guess SAD
}
energy('sapt2+')
--------------------------------------------------------------------------

  //              Dimer HF             //
    Molecular point group: c1
  Charge       = 1
  Multiplicity = 1
  Basis Set: AUG-CC-PVDZ
    Blend: AUG-CC-PVDZ
  Basis Set: (AUG-CC-PVDZ AUX)
    Blend: AUG-CC-PVDZ-JKFIT
  @DF-RHF Final Energy:  -280.62403427930633
    Total Energy =                       -280.6240342793063292
  //            Monomer A HF           //
    Molecular point group: c1
  Multiplicity = 1
  Basis Set: AUG-CC-PVDZ
    Blend: AUG-CC-PVDZ
  Basis Set: (AUG-CC-PVDZ AUX)
    Blend: AUG-CC-PVDZ-JKFIT
  @DF-RHF Final Energy:  -204.56488944765738
    Total Energy =                       -204.5648894476573787
  //            Monomer B HF           //
    Molecular point group: c1

    Geometry (in Angstrom), charge = 0, multiplicity = 1:

       Center              X                  Y                   Z               Mass
    ------------   -----------------  -----------------  -----------------  -----------------
      Gh(C)          -0.937469967753     0.297656622822     0.133052452628    12.000000000000
      Gh(N)          -2.195789967753     0.697196622822     0.311692452628    14.003074004430
      Gh(N)          -0.677529967753    -0.912943377178    -0.345317547372    14.003074004430
      Gh(N)           0.073350032247     1.104746622822     0.431022452628    14.003074004430
      Gh(H)           1.020000032247     0.779456622822     0.286972452628     1.007825032230
      Gh(H)          -0.086339967753     2.026226622822     0.794662452628     1.007825032230
      Gh(H)          -2.404039967753     1.610326622822     0.672592452628     1.007825032230
      Gh(H)          -2.967799967753     0.095366622822     0.089862452628     1.007825032230
      Gh(H)          -1.416889967753    -1.548963377178    -0.581297547372     1.007825032230
      Gh(H)           0.285560032247    -1.194063377178    -0.472337547372     1.007825032230
         O            3.050520032247    -0.968553377178    -0.432957547372    15.994914619570
         H            3.598360032247    -0.870273377178    -1.218297547372     1.007825032230
         H            3.623240032247    -1.422653377178     0.193382452628     1.007825032230

  Charge       = 0
  Multiplicity = 1
  Basis Set: AUG-CC-PVDZ
    Blend: AUG-CC-PVDZ
  Basis Set: (AUG-CC-PVDZ AUX)
    Blend: AUG-CC-PVDZ-JKFIT

    Orbital Energies [Eh]
    ---------------------

    Doubly Occupied:

       1A    -20.578443     2A     -1.354381     3A     -0.715213
       4A     -0.585771     5A     -0.509136

  @DF-RHF Final Energy:   -76.04121748835544

   => Energetics <=

    Nuclear Repulsion Energy =              9.1451533090021790
    One-Electron Energy =                -122.8868523114028477
    Two-Electron Energy =                  37.7004815140452294
    Total Energy =                        -76.0412174883554428

  Dipole Moment: [D]
     X:     1.9018      Y:    -0.6039      Z:    -0.2698     Total:     2.0135

    SAPT Results
  --------------------------------------------------------------------------------------------------------
    Electrostatics                -15.66303804 [mEh]      -9.82870476 [kcal/mol]     -41.12330070 [kJ/mol]
      Elst10,r                    -16.63958986 [mEh]     -10.44150028 [kcal/mol]     -43.68723716 [kJ/mol]
      Elst12,r                      0.97655182 [mEh]       0.61279552 [kcal/mol]       2.56393646 [kJ/mol]

    Exchange                        1.27448650 [mEh]       0.79975235 [kcal/mol]       3.34616384 [kJ/mol]
      Exch10                        1.01014344 [mEh]       0.63387458 [kcal/mol]       2.65213123 [kJ/mol]
      Exch10(S^2)                   1.00953704 [mEh]       0.63349406 [kcal/mol]       2.65053913 [kJ/mol]
      Exch11(S^2)                  -0.00915046 [mEh]      -0.00574200 [kcal/mol]      -0.02402453 [kJ/mol]
      Exch12(S^2)                   0.27349352 [mEh]       0.17161978 [kcal/mol]       0.71805715 [kJ/mol]

    Induction                      -2.50414484 [mEh]      -1.57137461 [kcal/mol]      -6.57463138 [kJ/mol]
      Ind20,r                      -2.23870964 [mEh]      -1.40481151 [kcal/mol]      -5.87773135 [kJ/mol]
      Ind22                        -0.22736478 [mEh]      -0.14267355 [kcal/mol]      -0.59694614 [kJ/mol]
      Exch-Ind20,r                  0.20792311 [mEh]       0.13047372 [kcal/mol]       0.54590205 [kJ/mol]
      Exch-Ind22                    0.02111680 [mEh]       0.01325099 [kcal/mol]       0.05544216 [kJ/mol]
      delta HF,r (2)               -0.26711034 [mEh]      -0.16761427 [kcal/mol]      -0.70129810 [kJ/mol]

    Dispersion                     -1.43089918 [mEh]      -0.89790279 [kcal/mol]      -3.75682529 [kJ/mol]
      Disp20                       -1.31568397 [mEh]      -0.82560415 [kcal/mol]      -3.45432778 [kJ/mol]
      Disp21                        0.06070199 [mEh]       0.03809108 [kcal/mol]       0.15937306 [kJ/mol]
      Disp22 (SDQ)                 -0.02957090 [mEh]      -0.01855602 [kcal/mol]      -0.07763840 [kJ/mol]
      Disp22 (T)                   -0.19505933 [mEh]      -0.12240158 [kcal/mol]      -0.51212819 [kJ/mol]
      Est. Disp22 (T)              -0.21029711 [mEh]      -0.13196343 [kcal/mol]      -0.55213498 [kJ/mol]
      Exch-Disp20                   0.06395080 [mEh]       0.04012973 [kcal/mol]       0.16790280 [kJ/mol]

  Total HF                        -17.92734329 [mEh]     -11.24957776 [kcal/mol]     -47.06823333 [kJ/mol]
  Total SAPT0                     -19.17907646 [mEh]     -12.03505218 [kcal/mol]     -50.35465831 [kJ/mol]
  Total SAPT2                     -18.14442955 [mEh]     -11.38580144 [kcal/mol]     -47.63819321 [kJ/mol]
  Total SAPT2+                    -18.32359557 [mEh]     -11.49822981 [kcal/mol]     -48.10859353 [kJ/mol]

  Special recipe for scaled SAPT0 (see Manual):
    Electrostatics sSAPT0         -16.63958986 [mEh]     -10.44150028 [kcal/mol]     -43.68723716 [kJ/mol]
    Exchange sSAPT0                 1.01014344 [mEh]       0.63387458 [kcal/mol]       2.65213123 [kJ/mol]
    Induction sSAPT0               -2.29752197 [mEh]      -1.44171680 [kcal/mol]      -6.03214309 [kJ/mol]
    Dispersion sSAPT0              -1.25161786 [mEh]      -0.78540206 [kcal/mol]      -3.28612223 [kJ/mol]
  Total sSAPT0                    -19.17858625 [mEh]     -12.03474456 [kcal/mol]     -50.35337125 [kJ/mol]
  --------------------------------------------------------------------------------------------------------

*** Psi4 exiting successfully. Buy a developer a beer!
