                               Psi4 1.4a2.dev224

  ==> Input File <==

--------------------------------------------------------------------------
#Generated by lconvert.py for sapt job

memory 20 GB

molecule  {
1 1
  C      -2.482940    0.145570    0.115880
  N      -3.741260    0.545110    0.294520
  N      -2.223000   -1.065030   -0.362490
  N      -1.472120    0.952660    0.413850
  H      -0.525470    0.627370    0.269800
  H      -1.631810    1.874140    0.777490
  H      -3.949510    1.458240    0.655420
  H      -4.513270   -0.056720    0.072690
  H      -2.962360   -1.701050   -0.598470
  H      -1.259910   -1.346150   -0.489510
--
0 1
  O       3.211170   -1.662310   -0.692260
  H       3.759010   -1.564040   -1.477600
  H       3.783900   -2.116420   -0.065920
units angstrom
no_reorient
symmetry c1
}

set {
scf_type DF
basis aug-cc-pvdz
freeze_core True
guess SAD
}
energy('sapt2+')
--------------------------------------------------------------------------

  //              Dimer HF             //
    Molecular point group: c1
  Charge       = 1
  Multiplicity = 1
  Basis Set: AUG-CC-PVDZ
    Blend: AUG-CC-PVDZ
  Basis Set: (AUG-CC-PVDZ AUX)
    Blend: AUG-CC-PVDZ-JKFIT
  @DF-RHF Final Energy:  -280.61320003409600
    Total Energy =                       -280.6132000340959962
  //            Monomer A HF           //
    Molecular point group: c1
  Multiplicity = 1
  Basis Set: AUG-CC-PVDZ
    Blend: AUG-CC-PVDZ
  Basis Set: (AUG-CC-PVDZ AUX)
    Blend: AUG-CC-PVDZ-JKFIT
  @DF-RHF Final Energy:  -204.56480858062650
    Total Energy =                       -204.5648085806265044
  //            Monomer B HF           //
    Molecular point group: c1

    Geometry (in Angstrom), charge = 0, multiplicity = 1:

       Center              X                  Y                   Z               Mass
    ------------   -----------------  -----------------  -----------------  -----------------
      Gh(C)          -1.331084404847     0.422624094469     0.188913606822    12.000000000000
      Gh(N)          -2.589404404847     0.822164094469     0.367553606822    14.003074004430
      Gh(N)          -1.071144404847    -0.787975905531    -0.289456393178    14.003074004430
      Gh(N)          -0.320264404847     1.229714094469     0.486883606822    14.003074004430
      Gh(H)           0.626385595153     0.904424094469     0.342833606822     1.007825032230
      Gh(H)          -0.479954404847     2.151194094469     0.850523606822     1.007825032230
      Gh(H)          -2.797654404847     1.735294094469     0.728453606822     1.007825032230
      Gh(H)          -3.361414404847     0.220334094469     0.145723606822     1.007825032230
      Gh(H)          -1.810504404847    -1.423995905531    -0.525436393178     1.007825032230
      Gh(H)          -0.108054404847    -1.069095905531    -0.416476393178     1.007825032230
         O            4.363025595153    -1.385255905531    -0.619226393178    15.994914619570
         H            4.910865595153    -1.286985905531    -1.404566393178     1.007825032230
         H            4.935755595153    -1.839365905531     0.007113606822     1.007825032230

  Charge       = 0
  Multiplicity = 1
  Basis Set: AUG-CC-PVDZ
    Blend: AUG-CC-PVDZ
  Basis Set: (AUG-CC-PVDZ AUX)
    Blend: AUG-CC-PVDZ-JKFIT

    Orbital Energies [Eh]
    ---------------------

    Doubly Occupied:

       1A    -20.578459     2A     -1.354353     3A     -0.715222
       4A     -0.585825     5A     -0.509179

  @DF-RHF Final Energy:   -76.04106419192100

   => Energetics <=

    Nuclear Repulsion Energy =              9.1451091941202449
    One-Electron Energy =                -122.8862703200430531
    Two-Electron Energy =                  37.7000969340018202
    Total Energy =                        -76.0410641919209951

  Dipole Moment: [D]
     X:     1.9019      Y:    -0.6040      Z:    -0.2699     Total:     2.0137

    SAPT Results
  --------------------------------------------------------------------------------------------------------
    Electrostatics                 -6.51692868 [mEh]      -4.08943448 [kcal/mol]     -17.11019388 [kJ/mol]
      Elst10,r                     -6.98481220 [mEh]      -4.38303583 [kcal/mol]     -18.33862191 [kJ/mol]
      Elst12,r                      0.46788353 [mEh]       0.29360134 [kcal/mol]       1.22842803 [kJ/mol]

    Exchange                        0.00183789 [mEh]       0.00115329 [kcal/mol]       0.00482537 [kJ/mol]
      Exch10                        0.00121904 [mEh]       0.00076496 [kcal/mol]       0.00320060 [kJ/mol]
      Exch10(S^2)                   0.00121904 [mEh]       0.00076496 [kcal/mol]       0.00320060 [kJ/mol]
      Exch11(S^2)                  -0.00002962 [mEh]      -0.00001859 [kcal/mol]      -0.00007778 [kJ/mol]
      Exch12(S^2)                   0.00064847 [mEh]       0.00040692 [kcal/mol]       0.00170255 [kJ/mol]

    Induction                      -0.37372848 [mEh]      -0.23451816 [kcal/mol]      -0.98122399 [kJ/mol]
      Ind20,r                      -0.33550634 [mEh]      -0.21053341 [kcal/mol]      -0.88087179 [kJ/mol]
      Ind22                        -0.03008708 [mEh]      -0.01887993 [kcal/mol]      -0.07899362 [kJ/mol]
      Exch-Ind20,r                  0.00030101 [mEh]       0.00018889 [kcal/mol]       0.00079031 [kJ/mol]
      Exch-Ind22                    0.00002699 [mEh]       0.00001694 [kcal/mol]       0.00007087 [kJ/mol]
      delta HF,r (2)               -0.00846306 [mEh]      -0.00531065 [kcal/mol]      -0.02221976 [kJ/mol]

    Dispersion                     -0.10861503 [mEh]      -0.06815696 [kcal/mol]      -0.28516873 [kJ/mol]
      Disp20                       -0.10074407 [mEh]      -0.06321786 [kcal/mol]      -0.26450352 [kJ/mol]
      Disp21                        0.01007123 [mEh]       0.00631979 [kcal/mol]       0.02644202 [kJ/mol]
      Disp22 (SDQ)                 -0.00131940 [mEh]      -0.00082794 [kcal/mol]      -0.00346409 [kJ/mol]
      Disp22 (T)                   -0.01631166 [mEh]      -0.01023572 [kcal/mol]      -0.04282625 [kJ/mol]
      Est. Disp22 (T)              -0.01672244 [mEh]      -0.01049349 [kcal/mol]      -0.04390475 [kJ/mol]
      Exch-Disp20                   0.00009964 [mEh]       0.00006253 [kcal/mol]       0.00026161 [kJ/mol]

  Total HF                         -7.32726155 [mEh]      -4.59792604 [kcal/mol]     -19.23772255 [kJ/mol]
  Total SAPT0                      -7.42790598 [mEh]      -4.66108137 [kcal/mol]     -19.50196446 [kJ/mol]
  Total SAPT2                      -6.98946370 [mEh]      -4.38595469 [kcal/mol]     -18.35083441 [kJ/mol]
  Total SAPT2+                     -6.99743430 [mEh]      -4.39095632 [kcal/mol]     -18.37176123 [kJ/mol]

  Special recipe for scaled SAPT0 (see Manual):
    Electrostatics sSAPT0          -6.98481220 [mEh]      -4.38303583 [kcal/mol]     -18.33862191 [kJ/mol]
    Exchange sSAPT0                 0.00121904 [mEh]       0.00076496 [kcal/mol]       0.00320060 [kJ/mol]
    Induction sSAPT0               -0.34366839 [mEh]      -0.21565517 [kcal/mol]      -0.90230124 [kJ/mol]
    Dispersion sSAPT0              -0.10064443 [mEh]      -0.06315533 [kcal/mol]      -0.26424191 [kJ/mol]
  Total sSAPT0                     -7.42790598 [mEh]      -4.66108137 [kcal/mol]     -19.50196446 [kJ/mol]
  --------------------------------------------------------------------------------------------------------

*** Psi4 exiting successfully. Buy a developer a beer!
