                               Psi4 1.4a2.dev224

  ==> Input File <==

--------------------------------------------------------------------------
#Generated by lconvert.py for sapt job

memory 20 GB

molecule  {
-1 1
  C      -0.839930    0.480710   -0.369610
  C      -2.107280   -0.342000   -0.049330
  O      -2.042860   -1.580050   -0.264140
  O      -3.077170    0.326530    0.397130
  H      -0.506040    0.995110    0.531920
  H      -0.039800   -0.150690   -0.750280
  H      -1.084130    1.248810   -1.103930
--
0 1
  O      -5.180620   -2.388590    0.719330
  H      -4.937620   -1.448760    0.779240
  H      -4.319540   -2.671110    0.371200
units angstrom
no_reorient
symmetry c1
}

set {
scf_type DF
basis aug-cc-pvdz
freeze_core True
guess SAD
}
energy('sapt2+')
--------------------------------------------------------------------------

  //              Dimer HF             //
    Molecular point group: c1
  Charge       = -1
  Multiplicity = 1
  Basis Set: AUG-CC-PVDZ
    Blend: AUG-CC-PVDZ
  Basis Set: (AUG-CC-PVDZ AUX)
    Blend: AUG-CC-PVDZ-JKFIT
  @DF-RHF Final Energy:  -303.33684763231776
    Total Energy =                       -303.3368476323177561
  //            Monomer A HF           //
    Molecular point group: c1
  Multiplicity = 1
  Basis Set: AUG-CC-PVDZ
    Blend: AUG-CC-PVDZ
  Basis Set: (AUG-CC-PVDZ AUX)
    Blend: AUG-CC-PVDZ-JKFIT
  @DF-RHF Final Energy:  -227.27447806645463
    Total Energy =                       -227.2744780664546340
  //            Monomer B HF           //
    Molecular point group: c1

    Geometry (in Angstrom), charge = 0, multiplicity = 1:

       Center              X                  Y                   Z               Mass
    ------------   -----------------  -----------------  -----------------  -----------------
      Gh(C)           1.900738082576     1.241944377791    -0.479086594776    12.000000000000
      Gh(C)           0.633388082576     0.419234377791    -0.158806594776    12.000000000000
      Gh(O)           0.697808082576    -0.818815622209    -0.373616594776    15.994914619570
      Gh(O)          -0.336501917424     1.087764377791     0.287653405224    15.994914619570
      Gh(H)           2.234628082576     1.756344377791     0.422443405224     1.007825032230
      Gh(H)           2.700868082576     0.610544377791    -0.859756594776     1.007825032230
      Gh(H)           1.656538082576     2.010044377791    -1.213406594776     1.007825032230
         O           -2.439951917424    -1.627355622209     0.609853405224    15.994914619570
         H           -2.196951917424    -0.687525622209     0.669763405224     1.007825032230
         H           -1.578871917424    -1.909875622209     0.261723405224     1.007825032230

  Charge       = 0
  Multiplicity = 1
  Basis Set: AUG-CC-PVDZ
    Blend: AUG-CC-PVDZ
  Basis Set: (AUG-CC-PVDZ AUX)
    Blend: AUG-CC-PVDZ-JKFIT

    Orbital Energies [Eh]
    ---------------------

    Doubly Occupied:

       1A    -20.583899     2A     -1.356576     3A     -0.691409
       4A     -0.602377     5A     -0.510989

  @DF-RHF Final Energy:   -76.03742149153061

   => Energetics <=

    Nuclear Repulsion Energy =              9.0837215706608223
    One-Electron Energy =                -122.7517859192495706
    Two-Electron Energy =                  37.6306428570581346
    Total Energy =                        -76.0374214915306084

  Dipole Moment: [D]
     X:     1.8160      Y:     1.0800      Z:    -0.4742     Total:     2.1654

    SAPT Results
  --------------------------------------------------------------------------------------------------------
    Electrostatics                -24.13147938 [mEh]     -15.14273192 [kcal/mol]     -63.35719037 [kJ/mol]
      Elst10,r                    -25.04994560 [mEh]     -15.71907818 [kcal/mol]     -65.76862312 [kJ/mol]
      Elst12,r                      0.91846623 [mEh]       0.57634626 [kcal/mol]       2.41143275 [kJ/mol]

    Exchange                        5.93990932 [mEh]       3.72734937 [kcal/mol]      15.59522976 [kJ/mol]
      Exch10                        4.16869582 [mEh]       2.61589612 [kcal/mol]      10.94490938 [kJ/mol]
      Exch10(S^2)                   4.16082014 [mEh]       2.61095405 [kcal/mol]      10.92423176 [kJ/mol]
      Exch11(S^2)                   0.05978528 [mEh]       0.03751583 [kcal/mol]       0.15696624 [kJ/mol]
      Exch12(S^2)                   1.71142821 [mEh]       1.07393741 [kcal/mol]       4.49335414 [kJ/mol]

    Induction                      -4.83407285 [mEh]      -3.03342651 [kcal/mol]     -12.69185651 [kJ/mol]
      Ind20,r                      -5.00338070 [mEh]      -3.13966879 [kcal/mol]     -13.13637421 [kJ/mol]
      Ind22                        -1.08722206 [mEh]      -0.68224214 [kcal/mol]      -2.85450112 [kJ/mol]
      Exch-Ind20,r                  1.47251478 [mEh]       0.92401698 [kcal/mol]       3.86608703 [kJ/mol]
      Exch-Ind22                    0.31997376 [mEh]       0.20078657 [kcal/mol]       0.84009100 [kJ/mol]
      delta HF,r (2)               -0.53595864 [mEh]      -0.33631912 [kcal/mol]      -1.40715921 [kJ/mol]

    Dispersion                     -3.36059845 [mEh]      -2.10880737 [kcal/mol]      -8.82325002 [kJ/mol]
      Disp20                       -2.95185287 [mEh]      -1.85231564 [kcal/mol]      -7.75008863 [kJ/mol]
      Disp21                        0.14408568 [mEh]       0.09041513 [kcal/mol]       0.37829690 [kJ/mol]
      Disp22 (SDQ)                 -0.35481792 [mEh]      -0.22265161 [kcal/mol]      -0.93157432 [kJ/mol]
      Disp22 (T)                   -0.55687415 [mEh]      -0.34944380 [kcal/mol]      -1.46207287 [kJ/mol]
      Est. Disp22 (T)              -0.62621538 [mEh]      -0.39295609 [kcal/mol]      -1.64412826 [kJ/mol]
      Exch-Disp20                   0.42820204 [mEh]       0.26870084 [kcal/mol]       1.12424430 [kJ/mol]

  Total HF                        -24.94807433 [mEh]     -15.65515300 [kcal/mol]     -65.50116014 [kJ/mol]
  Total SAPT0                     -27.47172516 [mEh]     -17.23876780 [kcal/mol]     -72.12700447 [kJ/mol]
  Total SAPT2                     -25.54929373 [mEh]     -16.03242387 [kcal/mol]     -67.07966146 [kJ/mol]
  Total SAPT2+                    -26.38624136 [mEh]     -16.55761643 [kcal/mol]     -69.27706714 [kJ/mol]

  Special recipe for scaled SAPT0 (see Manual):
    Electrostatics sSAPT0         -25.04994560 [mEh]     -15.71907818 [kcal/mol]     -65.76862312 [kJ/mol]
    Exchange sSAPT0                 4.16869582 [mEh]       2.61589612 [kcal/mol]      10.94490938 [kJ/mol]
    Induction sSAPT0               -4.05844709 [mEh]      -2.54671400 [kcal/mol]     -10.65545138 [kJ/mol]
    Dispersion sSAPT0              -2.52121469 [mEh]      -1.58208611 [kcal/mol]      -6.61944826 [kJ/mol]
  Total sSAPT0                    -27.46091157 [mEh]     -17.23198217 [kcal/mol]     -72.09861339 [kJ/mol]
  --------------------------------------------------------------------------------------------------------

*** Psi4 exiting successfully. Buy a developer a beer!
