                               Psi4 1.4a2.dev224

  ==> Input File <==

--------------------------------------------------------------------------
#Generated by lconvert.py for sapt job

memory 20 GB

molecule  {
-1 1
  C      -0.839930    0.480710   -0.369610
  C      -2.107280   -0.342000   -0.049330
  O      -2.042860   -1.580050   -0.264140
  O      -3.077170    0.326530    0.397130
  H      -0.506040    0.995110    0.531920
  H      -0.039800   -0.150690   -0.750280
  H      -1.084130    1.248810   -1.103930
--
0 1
  O      -6.039290   -3.207950    0.895690
  H      -5.796280   -2.268120    0.955600
  H      -5.178210   -3.490470    0.547560
units angstrom
no_reorient
symmetry c1
}

set {
scf_type DF
basis aug-cc-pvdz
freeze_core True
guess SAD
}
energy('sapt2+')
--------------------------------------------------------------------------

  //              Dimer HF             //
    Molecular point group: c1
  Charge       = -1
  Multiplicity = 1
  Basis Set: AUG-CC-PVDZ
    Blend: AUG-CC-PVDZ
  Basis Set: (AUG-CC-PVDZ AUX)
    Blend: AUG-CC-PVDZ-JKFIT
  @DF-RHF Final Energy:  -303.32533743059571
    Total Energy =                       -303.3253374305957095
  //            Monomer A HF           //
    Molecular point group: c1
  Multiplicity = 1
  Basis Set: AUG-CC-PVDZ
    Blend: AUG-CC-PVDZ
  Basis Set: (AUG-CC-PVDZ AUX)
    Blend: AUG-CC-PVDZ-JKFIT
  @DF-RHF Final Energy:  -227.27438154229799
    Total Energy =                       -227.2743815422979878
  //            Monomer B HF           //
    Molecular point group: c1

    Geometry (in Angstrom), charge = 0, multiplicity = 1:

       Center              X                  Y                   Z               Mass
    ------------   -----------------  -----------------  -----------------  -----------------
      Gh(C)           2.101521576002     1.433536107307    -0.520325021618    12.000000000000
      Gh(C)           0.834171576002     0.610826107307    -0.200045021618    12.000000000000
      Gh(O)           0.898591576002    -0.627223892693    -0.414855021618    15.994914619570
      Gh(O)          -0.135718423998     1.279356107307     0.246414978382    15.994914619570
      Gh(H)           2.435411576002     1.947936107307     0.381204978382     1.007825032230
      Gh(H)           2.901651576002     0.802136107307    -0.900995021618     1.007825032230
      Gh(H)           1.857321576002     2.201636107307    -1.254645021618     1.007825032230
         O           -3.097838423998    -2.255123892693     0.744974978382    15.994914619570
         H           -2.854828423998    -1.315293892693     0.804884978382     1.007825032230
         H           -2.236758423998    -2.537643892693     0.396844978382     1.007825032230

  Charge       = 0
  Multiplicity = 1
  Basis Set: AUG-CC-PVDZ
    Blend: AUG-CC-PVDZ
  Basis Set: (AUG-CC-PVDZ AUX)
    Blend: AUG-CC-PVDZ-JKFIT

    Orbital Energies [Eh]
    ---------------------

    Doubly Occupied:

       1A    -20.583870     2A     -1.356612     3A     -0.691467
       4A     -0.602408     5A     -0.511050

  @DF-RHF Final Energy:   -76.03732151701362

   => Energetics <=

    Nuclear Repulsion Energy =              9.0837115088866902
    One-Electron Energy =                -122.7512512724734819
    Two-Electron Energy =                  37.6302182465731576
    Total Energy =                        -76.0373215170136234

  Dipole Moment: [D]
     X:     1.8173      Y:     1.0808      Z:    -0.4746     Total:     2.1670

    SAPT Results
  --------------------------------------------------------------------------------------------------------
    Electrostatics                -11.69959502 [mEh]      -7.34160672 [kcal/mol]     -30.71728250 [kJ/mol]
      Elst10,r                    -12.67530072 [mEh]      -7.95387129 [kcal/mol]     -33.27899746 [kJ/mol]
      Elst12,r                      0.97570570 [mEh]       0.61226457 [kcal/mol]       2.56171496 [kJ/mol]

    Exchange                        0.20802905 [mEh]       0.13054020 [kcal/mol]       0.54618021 [kJ/mol]
      Exch10                        0.11854269 [mEh]       0.07438666 [kcal/mol]       0.31123379 [kJ/mol]
      Exch10(S^2)                   0.11852954 [mEh]       0.07437841 [kcal/mol]       0.31119927 [kJ/mol]
      Exch11(S^2)                   0.00318033 [mEh]       0.00199569 [kcal/mol]       0.00834997 [kJ/mol]
      Exch12(S^2)                   0.08630603 [mEh]       0.05415785 [kcal/mol]       0.22659645 [kJ/mol]

    Induction                      -1.21139602 [mEh]      -0.76016248 [kcal/mol]      -3.18051981 [kJ/mol]
      Ind20,r                      -1.11682084 [mEh]      -0.70081566 [kcal/mol]      -2.93221271 [kJ/mol]
      Ind22                        -0.14094459 [mEh]      -0.08844406 [kcal/mol]      -0.37004996 [kJ/mol]
      Exch-Ind20,r                  0.05674903 [mEh]       0.03561056 [kcal/mol]       0.14899456 [kJ/mol]
      Exch-Ind22                    0.00716182 [mEh]       0.00449411 [kcal/mol]       0.01880335 [kJ/mol]
      delta HF,r (2)               -0.01754145 [mEh]      -0.01100742 [kcal/mol]      -0.04605506 [kJ/mol]

    Dispersion                     -0.51303945 [mEh]      -0.32193712 [kcal/mol]      -1.34698490 [kJ/mol]
      Disp20                       -0.41021927 [mEh]      -0.25741648 [kcal/mol]      -1.07703054 [kJ/mol]
      Disp21                        0.02595824 [mEh]       0.01628904 [kcal/mol]       0.06815334 [kJ/mol]
      Disp22 (SDQ)                 -0.05383585 [mEh]      -0.03378251 [kcal/mol]      -0.14134600 [kJ/mol]
      Disp22 (T)                   -0.08488428 [mEh]      -0.05326569 [kcal/mol]      -0.22286366 [kJ/mol]
      Est. Disp22 (T)              -0.09133577 [mEh]      -0.05731406 [kcal/mol]      -0.23980204 [kJ/mol]
      Exch-Disp20                   0.01639320 [mEh]       0.01028689 [kcal/mol]       0.04304035 [kJ/mol]

  Total HF                        -13.63437128 [mEh]      -8.55569715 [kcal/mol]     -35.79703687 [kJ/mol]
  Total SAPT0                     -14.02819735 [mEh]      -8.80282674 [kcal/mol]     -36.83102707 [kJ/mol]
  Total SAPT2                     -13.09678805 [mEh]      -8.21835858 [kcal/mol]     -34.38561230 [kJ/mol]
  Total SAPT2+                    -13.21600144 [mEh]      -8.29316611 [kcal/mol]     -34.69860700 [kJ/mol]

  Special recipe for scaled SAPT0 (see Manual):
    Electrostatics sSAPT0         -12.67530072 [mEh]      -7.95387129 [kcal/mol]     -33.27899746 [kJ/mol]
    Exchange sSAPT0                 0.11854269 [mEh]       0.07438666 [kcal/mol]       0.31123379 [kJ/mol]
    Induction sSAPT0               -1.07759436 [mEh]      -0.67620067 [kcal/mol]      -2.82922361 [kJ/mol]
    Dispersion sSAPT0              -0.39382061 [mEh]      -0.24712616 [kcal/mol]      -1.03397587 [kJ/mol]
  Total sSAPT0                    -14.02817301 [mEh]      -8.80281146 [kcal/mol]     -36.83096316 [kJ/mol]
  --------------------------------------------------------------------------------------------------------

*** Psi4 exiting successfully. Buy a developer a beer!
