                               Psi4 1.4a2.dev224

  ==> Input File <==

--------------------------------------------------------------------------
#Generated by lconvert.py for sapt job

memory 20 GB

molecule  {
-1 1
  C      -0.839930    0.480710   -0.369610
  C      -2.107280   -0.342000   -0.049330
  O      -2.042860   -1.580050   -0.264140
  O      -3.077170    0.326530    0.397130
  H      -0.506040    0.995110    0.531920
  H      -0.039800   -0.150690   -0.750280
  H      -1.084130    1.248810   -1.103930
--
0 1
  O      -5.609950   -2.798270    0.807510
  H      -5.366950   -1.858440    0.867420
  H      -4.748870   -3.080790    0.459380
units angstrom
no_reorient
symmetry c1
}

set {
scf_type DF
basis aug-cc-pvdz
freeze_core True
guess SAD
}
energy('sapt2+')
--------------------------------------------------------------------------

  //              Dimer HF             //
    Molecular point group: c1
  Charge       = -1
  Multiplicity = 1
  Basis Set: AUG-CC-PVDZ
    Blend: AUG-CC-PVDZ
  Basis Set: (AUG-CC-PVDZ AUX)
    Blend: AUG-CC-PVDZ-JKFIT
  @DF-RHF Final Energy:  -303.33009074250430
    Total Energy =                       -303.3300907425042965
  //            Monomer A HF           //
    Molecular point group: c1
  Multiplicity = 1
  Basis Set: AUG-CC-PVDZ
    Blend: AUG-CC-PVDZ
  Basis Set: (AUG-CC-PVDZ AUX)
    Blend: AUG-CC-PVDZ-JKFIT
  @DF-RHF Final Energy:  -227.27441064980508
    Total Energy =                       -227.2744106498050769
  //            Monomer B HF           //
    Molecular point group: c1

    Geometry (in Angstrom), charge = 0, multiplicity = 1:

       Center              X                  Y                   Z               Mass
    ------------   -----------------  -----------------  -----------------  -----------------
      Gh(C)           2.001128725557     1.337740242549    -0.499705808197    12.000000000000
      Gh(C)           0.733778725557     0.515030242549    -0.179425808197    12.000000000000
      Gh(O)           0.798198725557    -0.723019757451    -0.394235808197    15.994914619570
      Gh(O)          -0.236111274443     1.183560242549     0.267034191803    15.994914619570
      Gh(H)           2.335018725557     1.852140242549     0.401824191803     1.007825032230
      Gh(H)           2.801258725557     0.706340242549    -0.880375808197     1.007825032230
      Gh(H)           1.756928725557     2.105840242549    -1.234025808197     1.007825032230
         O           -2.768891274443    -1.941239757451     0.677414191803    15.994914619570
         H           -2.525891274443    -1.001409757451     0.737324191803     1.007825032230
         H           -1.907811274443    -2.223759757451     0.329284191803     1.007825032230

  Charge       = 0
  Multiplicity = 1
  Basis Set: AUG-CC-PVDZ
    Blend: AUG-CC-PVDZ
  Basis Set: (AUG-CC-PVDZ AUX)
    Blend: AUG-CC-PVDZ-JKFIT

    Orbital Energies [Eh]
    ---------------------

    Doubly Occupied:

       1A    -20.583888     2A     -1.356609     3A     -0.691456
       4A     -0.602402     5A     -0.511037

  @DF-RHF Final Energy:   -76.03735214775151

   => Energetics <=

    Nuclear Repulsion Energy =              9.0837215706608188
    One-Electron Energy =                -122.7513624937785721
    Two-Electron Energy =                  37.6302887753662532
    Total Energy =                        -76.0373521477515055

  Dipole Moment: [D]
     X:     1.8169      Y:     1.0807      Z:    -0.4745     Total:     2.1666

    SAPT Results
  --------------------------------------------------------------------------------------------------------
    Electrostatics                -15.93482132 [mEh]      -9.99925134 [kcal/mol]     -41.83686761 [kJ/mol]
      Elst10,r                    -17.05120793 [mEh]     -10.69979452 [kcal/mol]     -44.76794026 [kJ/mol]
      Elst12,r                      1.11638661 [mEh]       0.70054318 [kcal/mol]       2.93107265 [kJ/mol]

    Exchange                        1.08559953 [mEh]       0.68122399 [kcal/mol]       2.85024119 [kJ/mol]
      Exch10                        0.68564744 [mEh]       0.43025027 [kcal/mol]       1.80016711 [kJ/mol]
      Exch10(S^2)                   0.68533158 [mEh]       0.43005206 [kcal/mol]       1.79933781 [kJ/mol]
      Exch11(S^2)                   0.01400611 [mEh]       0.00878897 [kcal/mol]       0.03677303 [kJ/mol]
      Exch12(S^2)                   0.38594599 [mEh]       0.24218476 [kcal/mol]       1.01330104 [kJ/mol]

    Induction                      -2.27011707 [mEh]      -1.42451997 [kcal/mol]      -5.96019155 [kJ/mol]
      Ind20,r                      -2.15325892 [mEh]      -1.35119037 [kcal/mol]      -5.65338051 [kJ/mol]
      Ind22                        -0.35377956 [mEh]      -0.22200003 [kcal/mol]      -0.92884812 [kJ/mol]
      Exch-Ind20,r                  0.28026211 [mEh]       0.17586713 [kcal/mol]       0.73582807 [kJ/mol]
      Exch-Ind22                    0.04604695 [mEh]       0.02889490 [kcal/mol]       0.12089625 [kJ/mol]
      delta HF,r (2)               -0.08938765 [mEh]      -0.05609160 [kcal/mol]      -0.23468725 [kJ/mol]

    Dispersion                     -1.26456266 [mEh]      -0.79352505 [kcal/mol]      -3.32010882 [kJ/mol]
      Disp20                       -1.03503090 [mEh]      -0.64949169 [kcal/mol]      -2.71747324 [kJ/mol]
      Disp21                        0.05199222 [mEh]       0.03262561 [kcal/mol]       0.13650557 [kJ/mol]
      Disp22 (SDQ)                 -0.13631728 [mEh]      -0.08554038 [kcal/mol]      -0.35790096 [kJ/mol]
      Disp22 (T)                   -0.20641778 [mEh]      -0.12952911 [kcal/mol]      -0.54194981 [kJ/mol]
      Est. Disp22 (T)              -0.22787144 [mEh]      -0.14299149 [kcal/mol]      -0.59827638 [kJ/mol]
      Exch-Disp20                   0.08266472 [mEh]       0.05187290 [kcal/mol]       0.21703620 [kJ/mol]

  Total HF                        -18.32794495 [mEh]     -11.50095909 [kcal/mol]     -48.12001283 [kJ/mol]
  Total SAPT0                     -19.28031112 [mEh]     -12.09857789 [kcal/mol]     -50.62044987 [kJ/mol]
  Total SAPT2                     -18.07170503 [mEh]     -11.34016611 [kcal/mol]     -47.44725501 [kJ/mol]
  Total SAPT2+                    -18.38390152 [mEh]     -11.53607237 [kcal/mol]     -48.26692679 [kJ/mol]

  Special recipe for scaled SAPT0 (see Manual):
    Electrostatics sSAPT0         -17.05120793 [mEh]     -10.69979452 [kcal/mol]     -44.76794026 [kJ/mol]
    Exchange sSAPT0                 0.68564744 [mEh]       0.43025027 [kcal/mol]       1.80016711 [kJ/mol]
    Induction sSAPT0               -1.96199676 [mEh]      -1.23117156 [kcal/mol]      -5.15122180 [kJ/mol]
    Dispersion sSAPT0              -0.95225182 [mEh]      -0.59754704 [kcal/mol]      -2.50013681 [kJ/mol]
  Total sSAPT0                    -19.27980908 [mEh]     -12.09826285 [kcal/mol]     -50.61913176 [kJ/mol]
  --------------------------------------------------------------------------------------------------------

*** Psi4 exiting successfully. Buy a developer a beer!
