                               Psi4 1.4a2.dev224

  ==> Input File <==

--------------------------------------------------------------------------
#Generated by lconvert.py for sapt job

memory 20 GB

molecule  {
0 1
  C      -0.862230   -0.933550   -0.246020
  C      -3.193910    0.461080   -0.019760
  S      -2.332740   -0.567710   -1.229450
  H      -1.136270   -1.462460    0.664020
  H      -0.216530   -1.567910   -0.847800
  H      -0.331130   -0.015790   -0.003650
  H      -3.400560   -0.108030    0.883810
  H      -2.602360    1.342710    0.216650
  H      -4.133320    0.774680   -0.467680
--
0 1
  O      -3.881910   -3.525810    1.034020
  H      -3.707410   -3.096300    0.185990
  H      -4.375590   -4.312530    0.796160
units angstrom
no_reorient
symmetry c1
}

set {
scf_type DF
basis aug-cc-pvdz
freeze_core True
guess SAD
}
energy('sapt2+')
--------------------------------------------------------------------------

  //              Dimer HF             //
    Molecular point group: c1
  Charge       = 0
  Multiplicity = 1
  Basis Set: AUG-CC-PVDZ
    Blend: AUG-CC-PVDZ
  Basis Set: (AUG-CC-PVDZ AUX)
    Blend: AUG-CC-PVDZ-JKFIT
  @DF-RHF Final Energy:  -552.80917538991366
    Total Energy =                       -552.8091753899136620
  //            Monomer A HF           //
    Molecular point group: c1
  Multiplicity = 1
  Basis Set: AUG-CC-PVDZ
    Blend: AUG-CC-PVDZ
  Basis Set: (AUG-CC-PVDZ AUX)
    Blend: AUG-CC-PVDZ-JKFIT
  @DF-RHF Final Energy:  -476.76456077581429
    Total Energy =                       -476.7645607758142887
  //            Monomer B HF           //
    Molecular point group: c1

    Geometry (in Angstrom), charge = 0, multiplicity = 1:

       Center              X                  Y                   Z               Mass
    ------------   -----------------  -----------------  -----------------  -----------------
      Gh(C)           1.704395062086     0.175130628571     0.060362829983    12.000000000000
      Gh(C)          -0.627284937914     1.569760628571     0.286622829983    12.000000000000
      Gh(S)           0.233885062086     0.540970628571    -0.923067170017    31.972071174400
      Gh(H)           1.430355062086    -0.353779371429     0.970402829983     1.007825032230
      Gh(H)           2.350095062086    -0.459229371429    -0.541417170017     1.007825032230
      Gh(H)           2.235495062086     1.092890628571     0.302732829983     1.007825032230
      Gh(H)          -0.833934937914     1.000650628571     1.190192829983     1.007825032230
      Gh(H)          -0.035734937914     2.451390628571     0.523032829983     1.007825032230
      Gh(H)          -1.566694937914     1.883360628571    -0.161297170017     1.007825032230
         O           -1.315284937914    -2.417129371429     1.340402829983    15.994914619570
         H           -1.140784937914    -1.987619371429     0.492372829983     1.007825032230
         H           -1.808964937914    -3.203849371429     1.102542829983     1.007825032230

  Charge       = 0
  Multiplicity = 1
  Basis Set: AUG-CC-PVDZ
    Blend: AUG-CC-PVDZ
  Basis Set: (AUG-CC-PVDZ AUX)
    Blend: AUG-CC-PVDZ-JKFIT

    Orbital Energies [Eh]
    ---------------------

    Doubly Occupied:

       1A    -20.578396     2A     -1.354381     3A     -0.715111
       4A     -0.585788     5A     -0.509137

  @DF-RHF Final Energy:   -76.04114711048003

   => Energetics <=

    Nuclear Repulsion Energy =              9.1448260298246584
    One-Electron Energy =                -122.8863186937630161
    Two-Electron Energy =                  37.7003455534583267
    Total Energy =                        -76.0411471104800398

  Dipole Moment: [D]
     X:    -0.5439      Y:    -0.6099      Z:    -1.8435     Total:     2.0165

    SAPT Results
  --------------------------------------------------------------------------------------------------------
    Electrostatics                 -3.65611613 [mEh]      -2.29424751 [kcal/mol]      -9.59913157 [kJ/mol]
      Elst10,r                     -3.87280073 [mEh]      -2.43021915 [kcal/mol]     -10.16803692 [kJ/mol]
      Elst12,r                      0.21668460 [mEh]       0.13597164 [kcal/mol]       0.56890535 [kJ/mol]

    Exchange                        1.16474102 [mEh]       0.73088603 [kcal/mol]       3.05802713 [kJ/mol]
      Exch10                        0.97091720 [mEh]       0.60925974 [kcal/mol]       2.54914277 [kJ/mol]
      Exch10(S^2)                   0.97025221 [mEh]       0.60884245 [kcal/mol]       2.54739682 [kJ/mol]
      Exch11(S^2)                   0.02705156 [mEh]       0.01697511 [kcal/mol]       0.07102387 [kJ/mol]
      Exch12(S^2)                   0.16677226 [mEh]       0.10465117 [kcal/mol]       0.43786050 [kJ/mol]

    Induction                      -0.59932920 [mEh]      -0.37608475 [kcal/mol]      -1.57353860 [kJ/mol]
      Ind20,r                      -0.73509441 [mEh]      -0.46127871 [kcal/mol]      -1.92999012 [kJ/mol]
      Ind22                        -0.05728312 [mEh]      -0.03594570 [kcal/mol]      -0.15039682 [kJ/mol]
      Exch-Ind20,r                  0.30251716 [mEh]       0.18983238 [kcal/mol]       0.79425869 [kJ/mol]
      Exch-Ind22                    0.02357402 [mEh]       0.01479292 [kcal/mol]       0.06189357 [kJ/mol]
      delta HF,r (2)               -0.13304284 [mEh]      -0.08348564 [kcal/mol]      -0.34930392 [kJ/mol]

    Dispersion                     -1.59960465 [mEh]      -1.00376707 [kcal/mol]      -4.19976142 [kJ/mol]
      Disp20                       -1.55762370 [mEh]      -0.97742363 [kcal/mol]      -4.08954045 [kJ/mol]
      Disp21                        0.13677651 [mEh]       0.08582856 [kcal/mol]       0.35910668 [kJ/mol]
      Disp22 (SDQ)                 -0.02092989 [mEh]      -0.01313371 [kcal/mol]      -0.05495143 [kJ/mol]
      Disp22 (T)                   -0.23071644 [mEh]      -0.14477675 [kcal/mol]      -0.60574593 [kJ/mol]
      Est. Disp22 (T)              -0.24849891 [mEh]      -0.15593542 [kcal/mol]      -0.65243379 [kJ/mol]
      Exch-Disp20                   0.09067134 [mEh]       0.05689713 [kcal/mol]       0.23805757 [kJ/mol]

  Total HF                         -3.46750362 [mEh]      -2.17589137 [kcal/mol]      -9.10392950 [kJ/mol]
  Total SAPT0                      -4.93445598 [mEh]      -3.09641787 [kcal/mol]     -12.95541238 [kJ/mol]
  Total SAPT2                      -4.55765666 [mEh]      -2.85997273 [kcal/mol]     -11.96612591 [kJ/mol]
  Total SAPT2+                     -4.69030895 [mEh]      -2.94321330 [kcal/mol]     -12.31440445 [kJ/mol]

  Special recipe for scaled SAPT0 (see Manual):
    Electrostatics sSAPT0          -3.87280073 [mEh]      -2.43021915 [kcal/mol]     -10.16803692 [kJ/mol]
    Exchange sSAPT0                 0.97091720 [mEh]       0.60925974 [kcal/mol]       2.54914277 [kJ/mol]
    Induction sSAPT0               -0.56499764 [mEh]      -0.35454137 [kcal/mol]      -1.48340111 [kJ/mol]
    Dispersion sSAPT0              -1.46676580 [mEh]      -0.92040943 [kcal/mol]      -3.85099307 [kJ/mol]
  Total sSAPT0                     -4.93364697 [mEh]      -3.09591021 [kcal/mol]     -12.95328833 [kJ/mol]
  --------------------------------------------------------------------------------------------------------

*** Psi4 exiting successfully. Buy a developer a beer!
