                               Psi4 1.4a2.dev224

  ==> Input File <==

--------------------------------------------------------------------------
#Generated by lconvert.py for sapt job

memory 20 GB

molecule  {
0 1
  C      -0.862230   -0.933550   -0.246020
  C      -3.193910    0.461080   -0.019760
  S      -2.332740   -0.567710   -1.229450
  H      -1.136270   -1.462460    0.664020
  H      -0.216530   -1.567910   -0.847800
  H      -0.331130   -0.015790   -0.003650
  H      -3.400560   -0.108030    0.883810
  H      -2.602360    1.342710    0.216650
  H      -4.133320    0.774680   -0.467680
--
0 1
  O      -4.250130   -4.175390    1.242410
  H      -4.075630   -3.745890    0.394380
  H      -4.743810   -4.962120    1.004550
units angstrom
no_reorient
symmetry c1
}

set {
scf_type DF
basis aug-cc-pvdz
freeze_core True
guess SAD
}
energy('sapt2+')
--------------------------------------------------------------------------

  //              Dimer HF             //
    Molecular point group: c1
  Charge       = 0
  Multiplicity = 1
  Basis Set: AUG-CC-PVDZ
    Blend: AUG-CC-PVDZ
  Basis Set: (AUG-CC-PVDZ AUX)
    Blend: AUG-CC-PVDZ-JKFIT
  @DF-RHF Final Energy:  -552.80732646717343
    Total Energy =                       -552.8073264671734250
  //            Monomer A HF           //
    Molecular point group: c1
  Multiplicity = 1
  Basis Set: AUG-CC-PVDZ
    Blend: AUG-CC-PVDZ
  Basis Set: (AUG-CC-PVDZ AUX)
    Blend: AUG-CC-PVDZ-JKFIT
  @DF-RHF Final Energy:  -476.76443530916271
    Total Energy =                       -476.7644353091627067
  //            Monomer B HF           //
    Molecular point group: c1

    Geometry (in Angstrom), charge = 0, multiplicity = 1:

       Center              X                  Y                   Z               Mass
    ------------   -----------------  -----------------  -----------------  -----------------
      Gh(C)           1.787262542166     0.321318099244     0.013464904358    12.000000000000
      Gh(C)          -0.544417457834     1.715948099244     0.239724904358    12.000000000000
      Gh(S)           0.316752542166     0.687158099244    -0.969965095642    31.972071174400
      Gh(H)           1.513222542166    -0.207591900756     0.923504904358     1.007825032230
      Gh(H)           2.432962542166    -0.313041900756    -0.588315095642     1.007825032230
      Gh(H)           2.318362542166     1.239078099244     0.255834904358     1.007825032230
      Gh(H)          -0.751067457834     1.146838099244     1.143294904358     1.007825032230
      Gh(H)           0.047132542166     2.597578099244     0.476134904358     1.007825032230
      Gh(H)          -1.483827457834     2.029548099244    -0.208195095642     1.007825032230
         O           -1.600637457834    -2.920521900756     1.501894904358    15.994914619570
         H           -1.426137457834    -2.491021900756     0.653864904358     1.007825032230
         H           -2.094317457834    -3.707251900756     1.264034904358     1.007825032230

  Charge       = 0
  Multiplicity = 1
  Basis Set: AUG-CC-PVDZ
    Blend: AUG-CC-PVDZ
  Basis Set: (AUG-CC-PVDZ AUX)
    Blend: AUG-CC-PVDZ-JKFIT

    Orbital Energies [Eh]
    ---------------------

    Doubly Occupied:

       1A    -20.578430     2A     -1.354356     3A     -0.715129
       4A     -0.585834     5A     -0.509167

  @DF-RHF Final Energy:   -76.04103789215581

   => Energetics <=

    Nuclear Repulsion Energy =              9.1448083810782901
    One-Electron Energy =                -122.8858590300818037
    Two-Electron Energy =                  37.7000127568476913
    Total Energy =                        -76.0410378921558276

  Dipole Moment: [D]
     X:    -0.5431      Y:    -0.6087      Z:    -1.8424     Total:     2.0149

    SAPT Results
  --------------------------------------------------------------------------------------------------------
    Electrostatics                 -1.66952739 [mEh]      -1.04764425 [kcal/mol]      -4.38334355 [kJ/mol]
      Elst10,r                     -1.81720951 [mEh]      -1.14031618 [kcal/mol]      -4.77108290 [kJ/mol]
      Elst12,r                      0.14768212 [mEh]       0.09267193 [kcal/mol]       0.38773936 [kJ/mol]

    Exchange                        0.10401730 [mEh]       0.06527184 [kcal/mol]       0.27309738 [kJ/mol]
      Exch10                        0.08351567 [mEh]       0.05240688 [kcal/mol]       0.21927037 [kJ/mol]
      Exch10(S^2)                   0.08350891 [mEh]       0.05240263 [kcal/mol]       0.21925262 [kJ/mol]
      Exch11(S^2)                   0.00210094 [mEh]       0.00131836 [kcal/mol]       0.00551602 [kJ/mol]
      Exch12(S^2)                   0.01840068 [mEh]       0.01154660 [kcal/mol]       0.04831098 [kJ/mol]

    Induction                      -0.12351894 [mEh]      -0.07750931 [kcal/mol]      -0.32429894 [kJ/mol]
      Ind20,r                      -0.13301841 [mEh]      -0.08347031 [kcal/mol]      -0.34923977 [kJ/mol]
      Ind22                        -0.00494391 [mEh]      -0.00310235 [kcal/mol]      -0.01298024 [kJ/mol]
      Exch-Ind20,r                  0.02682447 [mEh]       0.01683261 [kcal/mol]       0.07042763 [kJ/mol]
      Exch-Ind22                    0.00099699 [mEh]       0.00062562 [kcal/mol]       0.00261759 [kJ/mol]
      delta HF,r (2)               -0.01337808 [mEh]      -0.00839487 [kcal/mol]      -0.03512415 [kJ/mol]

    Dispersion                     -0.51045470 [mEh]      -0.32031516 [kcal/mol]      -1.34019862 [kJ/mol]
      Disp20                       -0.48874863 [mEh]      -0.30669439 [kcal/mol]      -1.28320934 [kJ/mol]
      Disp21                        0.05347404 [mEh]       0.03355546 [kcal/mol]       0.14039606 [kJ/mol]
      Disp22 (SDQ)                 -0.00537992 [mEh]      -0.00337595 [kcal/mol]      -0.01412499 [kJ/mol]
      Disp22 (T)                   -0.07541777 [mEh]      -0.04732536 [kcal/mol]      -0.19800932 [kJ/mol]
      Est. Disp22 (T)              -0.07922382 [mEh]      -0.04971370 [kcal/mol]      -0.20800210 [kJ/mol]
      Exch-Disp20                   0.00942364 [mEh]       0.00591342 [kcal/mol]       0.02474176 [kJ/mol]

  Total HF                         -1.85326585 [mEh]      -1.16294188 [kcal/mol]      -4.86574883 [kJ/mol]
  Total SAPT0                      -2.33259084 [mEh]      -1.46372285 [kcal/mol]      -6.12421642 [kJ/mol]
  Total SAPT2                      -2.16835402 [mEh]      -1.36066269 [kcal/mol]      -5.69301270 [kJ/mol]
  Total SAPT2+                     -2.19948373 [mEh]      -1.38019688 [kcal/mol]      -5.77474373 [kJ/mol]

  Special recipe for scaled SAPT0 (see Manual):
    Electrostatics sSAPT0          -1.81720951 [mEh]      -1.14031618 [kcal/mol]      -4.77108290 [kJ/mol]
    Exchange sSAPT0                 0.08351567 [mEh]       0.05240688 [kcal/mol]       0.21927037 [kJ/mol]
    Induction sSAPT0               -0.11956550 [mEh]      -0.07502849 [kcal/mol]      -0.31391919 [kJ/mol]
    Dispersion sSAPT0              -0.47932270 [mEh]      -0.30077954 [kcal/mol]      -1.25846158 [kJ/mol]
  Total sSAPT0                     -2.33258204 [mEh]      -1.46371733 [kcal/mol]      -6.12419330 [kJ/mol]
  --------------------------------------------------------------------------------------------------------

*** Psi4 exiting successfully. Buy a developer a beer!
