                               Psi4 1.4a2.dev224

  ==> Input File <==

--------------------------------------------------------------------------
#Generated by lconvert.py for sapt job

memory 20 GB

molecule  {
0 1
  C      -0.862230   -0.933550   -0.246020
  C      -3.193910    0.461080   -0.019760
  S      -2.332740   -0.567710   -1.229450
  H      -1.136270   -1.462460    0.664020
  H      -0.216530   -1.567910   -0.847800
  H      -0.331130   -0.015790   -0.003650
  H      -3.400560   -0.108030    0.883810
  H      -2.602360    1.342710    0.216650
  H      -4.133320    0.774680   -0.467680
--
0 1
  O      -4.618350   -4.824980    1.450800
  H      -4.443850   -4.395480    0.602760
  H      -5.112030   -5.611710    1.212940
units angstrom
no_reorient
symmetry c1
}

set {
scf_type DF
basis aug-cc-pvdz
freeze_core True
guess SAD
}
energy('sapt2+')
--------------------------------------------------------------------------

  //              Dimer HF             //
    Molecular point group: c1
  Charge       = 0
  Multiplicity = 1
  Basis Set: AUG-CC-PVDZ
    Blend: AUG-CC-PVDZ
  Basis Set: (AUG-CC-PVDZ AUX)
    Blend: AUG-CC-PVDZ-JKFIT
  @DF-RHF Final Energy:  -552.80641415820560
    Total Energy =                       -552.8064141582055981
  //            Monomer A HF           //
    Molecular point group: c1
  Multiplicity = 1
  Basis Set: AUG-CC-PVDZ
    Blend: AUG-CC-PVDZ
  Basis Set: (AUG-CC-PVDZ AUX)
    Blend: AUG-CC-PVDZ-JKFIT
  @DF-RHF Final Energy:  -476.76439606932257
    Total Energy =                       -476.7643960693225722
  //            Monomer B HF           //
    Molecular point group: c1

    Geometry (in Angstrom), charge = 0, multiplicity = 1:

       Center              X                  Y                   Z               Mass
    ------------   -----------------  -----------------  -----------------  -----------------
      Gh(C)           1.870130022246     0.467507568543    -0.033432895337    12.000000000000
      Gh(C)          -0.461549977754     1.862137568543     0.192827104663    12.000000000000
      Gh(S)           0.399620022246     0.833347568543    -1.016862895337    31.972071174400
      Gh(H)           1.596090022246    -0.061402431457     0.876607104663     1.007825032230
      Gh(H)           2.515830022246    -0.166852431457    -0.635212895337     1.007825032230
      Gh(H)           2.401230022246     1.385267568543     0.208937104663     1.007825032230
      Gh(H)          -0.668199977754     1.293027568543     1.096397104663     1.007825032230
      Gh(H)           0.130000022246     2.743767568543     0.429237104663     1.007825032230
      Gh(H)          -1.400959977754     2.175737568543    -0.255092895337     1.007825032230
         O           -1.885989977754    -3.423922431457     1.663387104663    15.994914619570
         H           -1.711489977754    -2.994422431457     0.815347104663     1.007825032230
         H           -2.379669977754    -4.210652431457     1.425527104663     1.007825032230

  Charge       = 0
  Multiplicity = 1
  Basis Set: AUG-CC-PVDZ
    Blend: AUG-CC-PVDZ
  Basis Set: (AUG-CC-PVDZ AUX)
    Blend: AUG-CC-PVDZ-JKFIT

    Orbital Energies [Eh]
    ---------------------

    Doubly Occupied:

       1A    -20.578445     2A     -1.354341     3A     -0.715125
       4A     -0.585843     5A     -0.509169

  @DF-RHF Final Energy:   -76.04100668339353

   => Energetics <=

    Nuclear Repulsion Energy =              9.1447676868804813
    One-Electron Energy =                -122.8857012799096680
    Two-Electron Energy =                  37.6999269096356571
    Total Energy =                        -76.0410066833935332

  Dipole Moment: [D]
     X:    -0.5428      Y:    -0.6083      Z:    -1.8418     Total:     2.0142

    SAPT Results
  --------------------------------------------------------------------------------------------------------
    Electrostatics                 -0.89267344 [mEh]      -0.56016104 [kcal/mol]      -2.34371379 [kJ/mol]
      Elst10,r                     -0.98499488 [mEh]      -0.61809362 [kcal/mol]      -2.58610371 [kJ/mol]
      Elst12,r                      0.09232145 [mEh]       0.05793258 [kcal/mol]       0.24238992 [kJ/mol]

    Exchange                        0.00933037 [mEh]       0.00585489 [kcal/mol]       0.02449687 [kJ/mol]
      Exch10                        0.00721576 [mEh]       0.00452796 [kcal/mol]       0.01894498 [kJ/mol]
      Exch10(S^2)                   0.00721570 [mEh]       0.00452792 [kcal/mol]       0.01894481 [kJ/mol]
      Exch11(S^2)                   0.00014476 [mEh]       0.00009084 [kcal/mol]       0.00038005 [kJ/mol]
      Exch12(S^2)                   0.00196985 [mEh]       0.00123610 [kcal/mol]       0.00517184 [kJ/mol]

    Induction                      -0.03348499 [mEh]      -0.02101215 [kcal/mol]      -0.08791483 [kJ/mol]
      Ind20,r                      -0.03464727 [mEh]      -0.02174149 [kcal/mol]      -0.09096640 [kJ/mol]
      Ind22                         0.00015207 [mEh]       0.00009542 [kcal/mol]       0.00039925 [kJ/mol]
      Exch-Ind20,r                  0.00243592 [mEh]       0.00152856 [kcal/mol]       0.00639551 [kJ/mol]
      Exch-Ind22                   -0.00001069 [mEh]      -0.00000671 [kcal/mol]      -0.00002807 [kJ/mol]
      delta HF,r (2)               -0.00141502 [mEh]      -0.00088794 [kcal/mol]      -0.00371512 [kJ/mol]

    Dispersion                     -0.18983692 [mEh]      -0.11912447 [kcal/mol]      -0.49841678 [kJ/mol]
      Disp20                       -0.18344579 [mEh]      -0.11511397 [kcal/mol]      -0.48163686 [kJ/mol]
      Disp21                        0.02396915 [mEh]       0.01504087 [kcal/mol]       0.06293100 [kJ/mol]
      Disp22 (SDQ)                 -0.00141060 [mEh]      -0.00088517 [kcal/mol]      -0.00370354 [kJ/mol]
      Disp22 (T)                   -0.02903056 [mEh]      -0.01821695 [kcal/mol]      -0.07621971 [kJ/mol]
      Est. Disp22 (T)              -0.02991011 [mEh]      -0.01876888 [kcal/mol]      -0.07852898 [kJ/mol]
      Exch-Disp20                   0.00096043 [mEh]       0.00060268 [kcal/mol]       0.00252160 [kJ/mol]

  Total HF                         -1.01140549 [mEh]      -0.63466653 [kcal/mol]      -2.65544475 [kJ/mol]
  Total SAPT0                      -1.19389085 [mEh]      -0.74917782 [kcal/mol]      -3.13456000 [kJ/mol]
  Total SAPT2                      -1.09931343 [mEh]      -0.68982959 [kcal/mol]      -2.88624701 [kJ/mol]
  Total SAPT2+                     -1.10666499 [mEh]      -0.69444276 [kcal/mol]      -2.90554853 [kJ/mol]

  Special recipe for scaled SAPT0 (see Manual):
    Electrostatics sSAPT0          -0.98499488 [mEh]      -0.61809362 [kcal/mol]      -2.58610371 [kJ/mol]
    Exchange sSAPT0                 0.00721576 [mEh]       0.00452796 [kcal/mol]       0.01894498 [kJ/mol]
    Induction sSAPT0               -0.03362637 [mEh]      -0.02110086 [kcal/mol]      -0.08828602 [kJ/mol]
    Dispersion sSAPT0              -0.18248536 [mEh]      -0.11451129 [kcal/mol]      -0.47911526 [kJ/mol]
  Total sSAPT0                     -1.19389085 [mEh]      -0.74917782 [kcal/mol]      -3.13456000 [kJ/mol]
  --------------------------------------------------------------------------------------------------------

*** Psi4 exiting successfully. Buy a developer a beer!
