                               Psi4 1.4a2.dev224

  ==> Input File <==

--------------------------------------------------------------------------
#Generated by lconvert.py for sapt job

memory 20 GB

molecule  {
0 1
  C      -3.750530    0.043170    0.026790
  C      -2.716760   -0.864410    0.104800
  N      -1.573370   -0.118080    0.006370
  C      -1.950270    1.181320   -0.124300
  N      -3.267330    1.318930   -0.116180
  H      -0.623650   -0.467410    0.026910
  H      -4.806890   -0.157630    0.066140
  H      -2.696200   -1.932900    0.217230
  H      -1.235890    1.980320   -0.220910
--
0 1
  O       1.783460   -1.325510    0.076160
  H       2.367390   -1.385600    0.835070
  H       2.341580   -1.544810   -0.672790
units angstrom
no_reorient
symmetry c1
}

set {
scf_type DF
basis aug-cc-pvdz
freeze_core True
guess SAD
}
energy('sapt2+')
--------------------------------------------------------------------------

  //              Dimer HF             //
    Molecular point group: c1
  Charge       = 0
  Multiplicity = 1
  Basis Set: AUG-CC-PVDZ
    Blend: AUG-CC-PVDZ
  Basis Set: (AUG-CC-PVDZ AUX)
    Blend: AUG-CC-PVDZ-JKFIT
  @DF-RHF Final Energy:  -300.89432163533837
    Total Energy =                       -300.8943216353383718
  //            Monomer A HF           //
    Molecular point group: c1
  Multiplicity = 1
  Basis Set: AUG-CC-PVDZ
    Blend: AUG-CC-PVDZ
  Basis Set: (AUG-CC-PVDZ AUX)
    Blend: AUG-CC-PVDZ-JKFIT
  @DF-RHF Final Energy:  -224.84659220111143
    Total Energy =                       -224.8465922011114344
  //            Monomer B HF           //
    Molecular point group: c1

    Geometry (in Angstrom), charge = 0, multiplicity = 1:

       Center              X                  Y                   Z               Mass
    ------------   -----------------  -----------------  -----------------  -----------------
      Gh(C)          -2.065898592584     0.085011155756     0.026539043474    12.000000000000
      Gh(C)          -1.032128592584    -0.822568844244     0.104549043474    12.000000000000
      Gh(N)           0.111261407416    -0.076238844244     0.006119043474    14.003074004430
      Gh(C)          -0.265638592584     1.223161155756    -0.124550956526    12.000000000000
      Gh(N)          -1.582698592584     1.360771155756    -0.116430956526    14.003074004430
      Gh(H)           1.060981407416    -0.425568844244     0.026659043474     1.007825032230
      Gh(H)          -3.122258592584    -0.115788844244     0.065889043474     1.007825032230
      Gh(H)          -1.011568592584    -1.891058844244     0.216979043474     1.007825032230
      Gh(H)           0.448741407416     2.022161155756    -0.221160956526     1.007825032230
         O            3.468091407416    -1.283668844244     0.075909043474    15.994914619570
         H            4.052021407416    -1.343758844244     0.834819043474     1.007825032230
         H            4.026211407416    -1.502968844244    -0.673040956526     1.007825032230

  Charge       = 0
  Multiplicity = 1
  Basis Set: AUG-CC-PVDZ
    Blend: AUG-CC-PVDZ
  Basis Set: (AUG-CC-PVDZ AUX)
    Blend: AUG-CC-PVDZ-JKFIT

    Orbital Energies [Eh]
    ---------------------

    Doubly Occupied:

       1A    -20.577692     2A     -1.355602     3A     -0.717931
       4A     -0.585365     5A     -0.509223

  @DF-RHF Final Energy:   -76.04144975527760

   => Energetics <=

    Nuclear Repulsion Energy =              9.1737334018699990
    One-Electron Energy =                -122.9387391189794414
    Two-Electron Energy =                  37.7235559618318490
    Total Energy =                        -76.0414497552775970

  Dipole Moment: [D]
     X:     1.9439      Y:    -0.4756      Z:     0.0170     Total:     2.0013

    SAPT Results
  --------------------------------------------------------------------------------------------------------
    Electrostatics                 -6.16526233 [mEh]      -3.86876052 [kcal/mol]     -16.18689401 [kJ/mol]
      Elst10,r                     -6.55365060 [mEh]      -4.11247784 [kcal/mol]     -17.20660727 [kJ/mol]
      Elst12,r                      0.38838827 [mEh]       0.24371732 [kcal/mol]       1.01971326 [kJ/mol]

    Exchange                        1.34920363 [mEh]       0.84663806 [kcal/mol]       3.54233365 [kJ/mol]
      Exch10                        1.07716634 [mEh]       0.67593208 [kcal/mol]       2.82809983 [kJ/mol]
      Exch10(S^2)                   1.07618604 [mEh]       0.67531694 [kcal/mol]       2.82552606 [kJ/mol]
      Exch11(S^2)                  -0.02462312 [mEh]      -0.01545124 [kcal/mol]      -0.06464799 [kJ/mol]
      Exch12(S^2)                   0.29666041 [mEh]       0.18615722 [kcal/mol]       0.77888181 [kJ/mol]

    Induction                      -0.86077720 [mEh]      -0.54014585 [kcal/mol]      -2.25997023 [kJ/mol]
      Ind20,r                      -0.78538953 [mEh]      -0.49283937 [kcal/mol]      -2.06203994 [kJ/mol]
      Ind22                        -0.07151227 [mEh]      -0.04487463 [kcal/mol]      -0.18775543 [kJ/mol]
      Exch-Ind20,r                  0.15298472 [mEh]       0.09599936 [kcal/mol]       0.40166132 [kJ/mol]
      Exch-Ind22                    0.01392976 [mEh]       0.00874105 [kcal/mol]       0.03657257 [kJ/mol]
      delta HF,r (2)               -0.17078987 [mEh]      -0.10717226 [kcal/mol]      -0.44840875 [kJ/mol]

    Dispersion                     -1.29570973 [mEh]      -0.81307013 [kcal/mol]      -3.40188542 [kJ/mol]
      Disp20                       -1.20584123 [mEh]      -0.75667679 [kcal/mol]      -3.16593570 [kJ/mol]
      Disp21                        0.08909978 [mEh]       0.05591096 [kcal/mol]       0.23393144 [kJ/mol]
      Disp22 (SDQ)                 -0.04210294 [mEh]      -0.02641999 [kcal/mol]      -0.11054126 [kJ/mol]
      Disp22 (T)                   -0.19916924 [mEh]      -0.12498059 [kcal/mol]      -0.52291878 [kJ/mol]
      Est. Disp22 (T)              -0.21514515 [mEh]      -0.13500562 [kcal/mol]      -0.56486351 [kJ/mol]
      Exch-Disp20                   0.07827981 [mEh]       0.04912132 [kcal/mol]       0.20552361 [kJ/mol]

  Total HF                         -6.27967895 [mEh]      -3.94055803 [kcal/mol]     -16.48729481 [kJ/mol]
  Total SAPT0                      -7.40724037 [mEh]      -4.64811351 [kcal/mol]     -19.44770691 [kJ/mol]
  Total SAPT2                      -6.80439732 [mEh]      -4.26982378 [kcal/mol]     -17.86494269 [kJ/mol]
  Total SAPT2+                     -6.97254562 [mEh]      -4.37533843 [kcal/mol]     -18.30641601 [kJ/mol]

  Special recipe for scaled SAPT0 (see Manual):
    Electrostatics sSAPT0          -6.55365060 [mEh]      -4.11247784 [kcal/mol]     -17.20660727 [kJ/mol]
    Exchange sSAPT0                 1.07716634 [mEh]       0.67593208 [kcal/mol]       2.82809983 [kJ/mol]
    Induction sSAPT0               -0.80277625 [mEh]      -0.50374970 [kcal/mol]      -2.10768875 [kJ/mol]
    Dispersion sSAPT0              -1.12734731 [mEh]      -0.70742112 [kcal/mol]      -2.95984995 [kJ/mol]
  Total sSAPT0                     -7.40660782 [mEh]      -4.64771657 [kcal/mol]     -19.44604614 [kJ/mol]
  --------------------------------------------------------------------------------------------------------

*** Psi4 exiting successfully. Buy a developer a beer!
