                               Psi4 1.4a2.dev224

  ==> Input File <==

--------------------------------------------------------------------------
#Generated by lconvert.py for sapt job

memory 20 GB

molecule  {
0 1
  C      -3.750530    0.043170    0.026790
  C      -2.716760   -0.864410    0.104800
  N      -1.573370   -0.118080    0.006370
  C      -1.950270    1.181320   -0.124300
  N      -3.267330    1.318930   -0.116180
  H      -0.623650   -0.467410    0.026910
  H      -4.806890   -0.157630    0.066140
  H      -2.696200   -1.932900    0.217230
  H      -1.235890    1.980320   -0.220910
--
0 1
  O       2.338940   -1.523540    0.087530
  H       2.922870   -1.583620    0.846430
  H       2.897070   -1.742840   -0.661420
units angstrom
no_reorient
symmetry c1
}

set {
scf_type DF
basis aug-cc-pvdz
freeze_core True
guess SAD
}
energy('sapt2+')
--------------------------------------------------------------------------

  //              Dimer HF             //
    Molecular point group: c1
  Charge       = 0
  Multiplicity = 1
  Basis Set: AUG-CC-PVDZ
    Blend: AUG-CC-PVDZ
  Basis Set: (AUG-CC-PVDZ AUX)
    Blend: AUG-CC-PVDZ-JKFIT
  @DF-RHF Final Energy:  -300.89198205757646
    Total Energy =                       -300.8919820575764561
  //            Monomer A HF           //
    Molecular point group: c1
  Multiplicity = 1
  Basis Set: AUG-CC-PVDZ
    Blend: AUG-CC-PVDZ
  Basis Set: (AUG-CC-PVDZ AUX)
    Blend: AUG-CC-PVDZ-JKFIT
  @DF-RHF Final Energy:  -224.84654400862485
    Total Energy =                       -224.8465440086248464
  //            Monomer B HF           //
    Molecular point group: c1

    Geometry (in Angstrom), charge = 0, multiplicity = 1:

       Center              X                  Y                   Z               Mass
    ------------   -----------------  -----------------  -----------------  -----------------
      Gh(C)          -2.182165293242     0.126460364508     0.024159325041    12.000000000000
      Gh(C)          -1.148395293242    -0.781119635492     0.102169325041    12.000000000000
      Gh(N)          -0.005005293242    -0.034789635492     0.003739325041    14.003074004430
      Gh(C)          -0.381905293242     1.264610364508    -0.126930674959    12.000000000000
      Gh(N)          -1.698965293242     1.402220364508    -0.118810674959    14.003074004430
      Gh(H)           0.944714706758    -0.384119635492     0.024279325041     1.007825032230
      Gh(H)          -3.238525293242    -0.074339635492     0.063509325041     1.007825032230
      Gh(H)          -1.127835293242    -1.849609635492     0.214599325041     1.007825032230
      Gh(H)           0.332474706758     2.063610364508    -0.223540674959     1.007825032230
         O            3.907304706758    -1.440249635492     0.084899325041    15.994914619570
         H            4.491234706758    -1.500329635492     0.843799325041     1.007825032230
         H            4.465434706758    -1.659549635492    -0.664050674959     1.007825032230

  Charge       = 0
  Multiplicity = 1
  Basis Set: AUG-CC-PVDZ
    Blend: AUG-CC-PVDZ
  Basis Set: (AUG-CC-PVDZ AUX)
    Blend: AUG-CC-PVDZ-JKFIT

    Orbital Energies [Eh]
    ---------------------

    Doubly Occupied:

       1A    -20.577708     2A     -1.355619     3A     -0.717951
       4A     -0.585405     5A     -0.509295

  @DF-RHF Final Energy:   -76.04135826370104

   => Energetics <=

    Nuclear Repulsion Energy =              9.1737479917500551
    One-Electron Energy =                -122.9382553921258960
    Two-Electron Energy =                  37.7231491366748060
    Total Energy =                        -76.0413582637010279

  Dipole Moment: [D]
     X:     1.9466      Y:    -0.4760      Z:     0.0169     Total:     2.0041

    SAPT Results
  --------------------------------------------------------------------------------------------------------
    Electrostatics                 -3.64771644 [mEh]      -2.28897663 [kcal/mol]      -9.57707820 [kJ/mol]
      Elst10,r                     -3.93597266 [mEh]      -2.46986014 [kcal/mol]     -10.33389481 [kJ/mol]
      Elst12,r                      0.28825622 [mEh]       0.18088351 [kcal/mol]       0.75681660 [kJ/mol]

    Exchange                        0.15138661 [mEh]       0.09499653 [kcal/mol]       0.39746550 [kJ/mol]
      Exch10                        0.11272542 [mEh]       0.07073627 [kcal/mol]       0.29596054 [kJ/mol]
      Exch10(S^2)                   0.11271252 [mEh]       0.07072817 [kcal/mol]       0.29592668 [kJ/mol]
      Exch11(S^2)                  -0.00433288 [mEh]      -0.00271892 [kcal/mol]      -0.01137597 [kJ/mol]
      Exch12(S^2)                   0.04299408 [mEh]       0.02697919 [kcal/mol]       0.11288094 [kJ/mol]

    Induction                      -0.26502329 [mEh]      -0.16630462 [kcal/mol]      -0.69581854 [kJ/mol]
      Ind20,r                      -0.24392675 [mEh]      -0.15306635 [kcal/mol]      -0.64042959 [kJ/mol]
      Ind22                        -0.00898116 [mEh]      -0.00563577 [kcal/mol]      -0.02358004 [kJ/mol]
      Exch-Ind20,r                  0.01346799 [mEh]       0.00845129 [kcal/mol]       0.03536021 [kJ/mol]
      Exch-Ind22                    0.00049588 [mEh]       0.00031117 [kcal/mol]       0.00130193 [kJ/mol]
      delta HF,r (2)               -0.02607925 [mEh]      -0.01636497 [kcal/mol]      -0.06847105 [kJ/mol]

    Dispersion                     -0.48741334 [mEh]      -0.30585649 [kcal/mol]      -1.27970356 [kJ/mol]
      Disp20                       -0.44441127 [mEh]      -0.27887228 [kcal/mol]      -1.16680164 [kJ/mol]
      Disp21                        0.04514823 [mEh]       0.02833094 [kcal/mol]       0.11853667 [kJ/mol]
      Disp22 (SDQ)                 -0.01635572 [mEh]      -0.01026337 [kcal/mol]      -0.04294194 [kJ/mol]
      Disp22 (T)                   -0.07786910 [mEh]      -0.04886360 [kcal/mol]      -0.20444529 [kJ/mol]
      Est. Disp22 (T)              -0.08173084 [mEh]      -0.05128687 [kcal/mol]      -0.21458428 [kJ/mol]
      Exch-Disp20                   0.00993625 [mEh]       0.00623509 [kcal/mol]       0.02608763 [kJ/mol]

  Total HF                         -4.07978525 [mEh]      -2.56010390 [kcal/mol]     -10.71147470 [kJ/mol]
  Total SAPT0                      -4.51426027 [mEh]      -2.83274109 [kcal/mol]     -11.85218871 [kJ/mol]
  Total SAPT2                      -4.19582813 [mEh]      -2.63292190 [kcal/mol]     -11.01614525 [kJ/mol]
  Total SAPT2+                     -4.24876646 [mEh]      -2.66614121 [kcal/mol]     -11.15513480 [kJ/mol]

  Special recipe for scaled SAPT0 (see Manual):
    Electrostatics sSAPT0          -3.93597266 [mEh]      -2.46986014 [kcal/mol]     -10.33389481 [kJ/mol]
    Exchange sSAPT0                 0.11272542 [mEh]       0.07073627 [kcal/mol]       0.29596054 [kJ/mol]
    Induction sSAPT0               -0.25653338 [mEh]      -0.16097712 [kcal/mol]      -0.67352829 [kJ/mol]
    Dispersion sSAPT0              -0.43447161 [mEh]      -0.27263505 [kcal/mol]      -1.14070505 [kJ/mol]
  Total sSAPT0                     -4.51425224 [mEh]      -2.83273604 [kcal/mol]     -11.85216761 [kJ/mol]
  --------------------------------------------------------------------------------------------------------

*** Psi4 exiting successfully. Buy a developer a beer!
