                               Psi4 1.4a2.dev224

  ==> Input File <==

--------------------------------------------------------------------------
#Generated by lconvert.py for sapt job

memory 20 GB

molecule  {
0 1
  C      -3.750530    0.043170    0.026790
  C      -2.716760   -0.864410    0.104800
  N      -1.573370   -0.118080    0.006370
  C      -1.950270    1.181320   -0.124300
  N      -3.267330    1.318930   -0.116180
  H      -0.623650   -0.467410    0.026910
  H      -4.806890   -0.157630    0.066140
  H      -2.696200   -1.932900    0.217230
  H      -1.235890    1.980320   -0.220910
--
0 1
  O       2.894430   -1.721570    0.098900
  H       3.478360   -1.781650    0.857800
  H       3.452560   -1.940860   -0.650050
units angstrom
no_reorient
symmetry c1
}

set {
scf_type DF
basis aug-cc-pvdz
freeze_core True
guess SAD
}
energy('sapt2+')
--------------------------------------------------------------------------

  //              Dimer HF             //
    Molecular point group: c1
  Charge       = 0
  Multiplicity = 1
  Basis Set: AUG-CC-PVDZ
    Blend: AUG-CC-PVDZ
  Basis Set: (AUG-CC-PVDZ AUX)
    Blend: AUG-CC-PVDZ-JKFIT
  @DF-RHF Final Energy:  -300.89056049328775
    Total Energy =                       -300.8905604932877509
  //            Monomer A HF           //
    Molecular point group: c1
  Multiplicity = 1
  Basis Set: AUG-CC-PVDZ
    Blend: AUG-CC-PVDZ
  Basis Set: (AUG-CC-PVDZ AUX)
    Blend: AUG-CC-PVDZ-JKFIT
  @DF-RHF Final Energy:  -224.84652766324194
    Total Energy =                       -224.8465276632419432
  //            Monomer B HF           //
    Molecular point group: c1

    Geometry (in Angstrom), charge = 0, multiplicity = 1:

       Center              X                  Y                   Z               Mass
    ------------   -----------------  -----------------  -----------------  -----------------
      Gh(C)          -2.298433969859     0.167909573260     0.021779489485    12.000000000000
      Gh(C)          -1.264663969859    -0.739670426740     0.099789489485    12.000000000000
      Gh(N)          -0.121273969859     0.006659573260     0.001359489485    14.003074004430
      Gh(C)          -0.498173969859     1.306059573260    -0.129310510515    12.000000000000
      Gh(N)          -1.815233969859     1.443669573260    -0.121190510515    14.003074004430
      Gh(H)           0.828446030141    -0.342670426740     0.021899489485     1.007825032230
      Gh(H)          -3.354793969859    -0.032890426740     0.061129489485     1.007825032230
      Gh(H)          -1.244103969859    -1.808160426740     0.212219489485     1.007825032230
      Gh(H)           0.216206030141     2.105059573260    -0.225920510515     1.007825032230
         O            4.346526030141    -1.596830426740     0.093889489485    15.994914619570
         H            4.930456030141    -1.656910426740     0.852789489485     1.007825032230
         H            4.904656030141    -1.816120426740    -0.655060510515     1.007825032230

  Charge       = 0
  Multiplicity = 1
  Basis Set: AUG-CC-PVDZ
    Blend: AUG-CC-PVDZ
  Basis Set: (AUG-CC-PVDZ AUX)
    Blend: AUG-CC-PVDZ-JKFIT

    Orbital Energies [Eh]
    ---------------------

    Doubly Occupied:

       1A    -20.577695     2A     -1.355604     3A     -0.717938
       4A     -0.585410     5A     -0.509288

  @DF-RHF Final Energy:   -76.04133146935008

   => Energetics <=

    Nuclear Repulsion Energy =              9.1737587448856743
    One-Electron Energy =                -122.9383102298019423
    Two-Electron Energy =                  37.7232200155661843
    Total Energy =                        -76.0413314693500837

  Dipole Moment: [D]
     X:     1.9461      Y:    -0.4756      Z:     0.0169     Total:     2.0034

    SAPT Results
  --------------------------------------------------------------------------------------------------------
    Electrostatics                 -2.40497282 [mEh]      -1.50914323 [kcal/mol]      -6.31425526 [kJ/mol]
      Elst10,r                     -2.60686047 [mEh]      -1.63582964 [kcal/mol]      -6.84431121 [kJ/mol]
      Elst12,r                      0.20188765 [mEh]       0.12668641 [kcal/mol]       0.53005595 [kJ/mol]

    Exchange                        0.01651067 [mEh]       0.01036060 [kcal/mol]       0.04334876 [kJ/mol]
      Exch10                        0.01137900 [mEh]       0.00714043 [kcal/mol]       0.02987557 [kJ/mol]
      Exch10(S^2)                   0.01137884 [mEh]       0.00714033 [kcal/mol]       0.02987515 [kJ/mol]
      Exch11(S^2)                  -0.00062921 [mEh]      -0.00039483 [kcal/mol]      -0.00165199 [kJ/mol]
      Exch12(S^2)                   0.00576088 [mEh]       0.00361501 [kcal/mol]       0.01512518 [kJ/mol]

    Induction                      -0.10663901 [mEh]      -0.06691699 [kcal/mol]      -0.27998069 [kJ/mol]
      Ind20,r                      -0.10050904 [mEh]      -0.06307037 [kcal/mol]      -0.26388645 [kJ/mol]
      Ind22                        -0.00076913 [mEh]      -0.00048264 [kcal/mol]      -0.00201935 [kJ/mol]
      Exch-Ind20,r                  0.00122191 [mEh]       0.00076676 [kcal/mol]       0.00320812 [kJ/mol]
      Exch-Ind22                    0.00000935 [mEh]       0.00000587 [kcal/mol]       0.00002455 [kJ/mol]
      delta HF,r (2)               -0.00659210 [mEh]      -0.00413660 [kcal/mol]      -0.01730755 [kJ/mol]

    Dispersion                     -0.20849617 [mEh]      -0.13083332 [kcal/mol]      -0.54740663 [kJ/mol]
      Disp20                       -0.19230486 [mEh]      -0.12067312 [kcal/mol]      -0.50489635 [kJ/mol]
      Disp21                        0.02575062 [mEh]       0.01615876 [kcal/mol]       0.06760824 [kJ/mol]
      Disp22 (SDQ)                 -0.00710034 [mEh]      -0.00445553 [kcal/mol]      -0.01864193 [kJ/mol]
      Disp22 (T)                   -0.03502320 [mEh]      -0.02197739 [kcal/mol]      -0.09195341 [kJ/mol]
      Est. Disp22 (T)              -0.03608898 [mEh]      -0.02264617 [kcal/mol]      -0.09475159 [kJ/mol]
      Exch-Disp20                   0.00124738 [mEh]       0.00078274 [kcal/mol]       0.00327500 [kJ/mol]

  Total HF                         -2.70136070 [mEh]      -1.69512943 [kcal/mol]      -7.09242153 [kJ/mol]
  Total SAPT0                      -2.89241818 [mEh]      -1.81501981 [kcal/mol]      -7.59404287 [kJ/mol]
  Total SAPT2                      -2.68615864 [mEh]      -1.68558999 [kcal/mol]      -7.05250854 [kJ/mol]
  Total SAPT2+                     -2.70359733 [mEh]      -1.69653294 [kcal/mol]      -7.09829382 [kJ/mol]

  Special recipe for scaled SAPT0 (see Manual):
    Electrostatics sSAPT0          -2.60686047 [mEh]      -1.63582964 [kcal/mol]      -6.84431121 [kJ/mol]
    Exchange sSAPT0                 0.01137900 [mEh]       0.00714043 [kcal/mol]       0.02987557 [kJ/mol]
    Induction sSAPT0               -0.10587918 [mEh]      -0.06644019 [kcal/mol]      -0.27798575 [kJ/mol]
    Dispersion sSAPT0              -0.19105743 [mEh]      -0.11989035 [kcal/mol]      -0.50162121 [kJ/mol]
  Total sSAPT0                     -2.89241807 [mEh]      -1.81501974 [kcal/mol]      -7.59404260 [kJ/mol]
  --------------------------------------------------------------------------------------------------------

*** Psi4 exiting successfully. Buy a developer a beer!
