                               Psi4 1.4a2.dev224

  ==> Input File <==

--------------------------------------------------------------------------
#Generated by lconvert.py for sapt job

memory 20 GB

molecule  {
0 1
  N      -2.266530    1.755160    0.352360
  C      -3.256290    0.724730    0.014240
  C      -2.422570   -0.289460   -0.775650
  C      -0.987250   -0.118690   -0.221530
  C      -1.119260    0.978990    0.839250
  H      -4.073720    1.148830   -0.565260
  H      -3.672930    0.252960    0.912840
  H      -2.802790   -1.300340   -0.649960
  H      -2.444770   -0.045290   -1.834260
  H      -0.590360   -1.037110    0.204170
  H      -0.318530    0.207680   -1.013410
  H      -1.319500    0.532970    1.821400
  H      -0.233290    1.605750    0.917350
  H      -2.617720    2.379590    1.069600
--
0 1
  O      -0.988730    2.952380   -3.326360
  H      -1.328800    2.860460   -2.417200
  H      -1.034040    3.893840   -3.499330
units angstrom
no_reorient
symmetry c1
}

set {
scf_type DF
basis aug-cc-pvdz
freeze_core True
guess SAD
}
energy('sapt2+')
--------------------------------------------------------------------------

  //              Dimer HF             //
    Molecular point group: c1
  Charge       = 0
  Multiplicity = 1
  Basis Set: AUG-CC-PVDZ
    Blend: AUG-CC-PVDZ
  Basis Set: (AUG-CC-PVDZ AUX)
    Blend: AUG-CC-PVDZ-JKFIT
  @DF-RHF Final Energy:  -287.21817247500246
    Total Energy =                       -287.2181724750024614
  //            Monomer A HF           //
    Molecular point group: c1
  Multiplicity = 1
  Basis Set: AUG-CC-PVDZ
    Blend: AUG-CC-PVDZ
  Basis Set: (AUG-CC-PVDZ AUX)
    Blend: AUG-CC-PVDZ-JKFIT
  @DF-RHF Final Energy:  -211.17367699241083
    Total Energy =                       -211.1736769924108330
  //            Monomer B HF           //
    Molecular point group: c1

    Geometry (in Angstrom), charge = 0, multiplicity = 1:

       Center              X                  Y                   Z               Mass
    ------------   -----------------  -----------------  -----------------  -----------------
      Gh(N)          -0.452806670383     0.655872038781     0.970749044683    14.003074004430
      Gh(C)          -1.442566670383    -0.374557961219     0.632629044683    12.000000000000
      Gh(C)          -0.608846670383    -1.388747961219    -0.157260955317    12.000000000000
      Gh(C)           0.826473329617    -1.217977961219     0.396859044683    12.000000000000
      Gh(C)           0.694463329617    -0.120297961219     1.457639044683    12.000000000000
      Gh(H)          -2.259996670383     0.049542038781     0.053129044683     1.007825032230
      Gh(H)          -1.859206670383    -0.846327961219     1.531229044683     1.007825032230
      Gh(H)          -0.989066670383    -2.399627961219    -0.031570955317     1.007825032230
      Gh(H)          -0.631046670383    -1.144577961219    -1.215870955317     1.007825032230
      Gh(H)           1.223363329617    -2.136397961219     0.822559044683     1.007825032230
      Gh(H)           1.495193329617    -0.891607961219    -0.395020955317     1.007825032230
      Gh(H)           0.494223329617    -0.566317961219     2.439789044683     1.007825032230
      Gh(H)           1.580433329617     0.506462038781     1.535739044683     1.007825032230
      Gh(H)          -0.803996670383     1.280302038781     1.687989044683     1.007825032230
         O            0.824993329617     1.853092038781    -2.707970955317    15.994914619570
         H            0.484923329617     1.761172038781    -1.798810955317     1.007825032230
         H            0.779683329617     2.794552038781    -2.880940955317     1.007825032230

  Charge       = 0
  Multiplicity = 1
  Basis Set: AUG-CC-PVDZ
    Blend: AUG-CC-PVDZ
  Basis Set: (AUG-CC-PVDZ AUX)
    Blend: AUG-CC-PVDZ-JKFIT

    Orbital Energies [Eh]
    ---------------------

    Doubly Occupied:

       1A    -20.578923     2A     -1.352165     3A     -0.713472
       4A     -0.584463     5A     -0.508726

  @DF-RHF Final Energy:   -76.04072358485308

   => Energetics <=

    Nuclear Repulsion Energy =              9.1065398999055382
    One-Electron Energy =                -122.8190279931370839
    Two-Electron Energy =                  37.6717645083784518
    Total Energy =                        -76.0407235848530831

  Dipole Moment: [D]
     X:    -0.6519      Y:     1.4454      Z:     1.2427     Total:     2.0146

    SAPT Results
  --------------------------------------------------------------------------------------------------------
    Electrostatics                 -3.87203907 [mEh]      -2.42974120 [kcal/mol]     -10.16603719 [kJ/mol]
      Elst10,r                     -3.87075091 [mEh]      -2.42893287 [kcal/mol]     -10.16265512 [kJ/mol]
      Elst12,r                     -0.00128816 [mEh]      -0.00080833 [kcal/mol]      -0.00338207 [kJ/mol]

    Exchange                        0.71330141 [mEh]       0.44760339 [kcal/mol]       1.87277259 [kJ/mol]
      Exch10                        0.52668291 [mEh]       0.33049852 [kcal/mol]       1.38280579 [kJ/mol]
      Exch10(S^2)                   0.52647127 [mEh]       0.33036571 [kcal/mol]       1.38225012 [kJ/mol]
      Exch11(S^2)                   0.00468784 [mEh]       0.00294166 [kcal/mol]       0.01230792 [kJ/mol]
      Exch12(S^2)                   0.18193066 [mEh]       0.11416321 [kcal/mol]       0.47765888 [kJ/mol]

    Induction                      -0.48209929 [mEh]      -0.30252187 [kcal/mol]      -1.26575151 [kJ/mol]
      Ind20,r                      -0.49213860 [mEh]      -0.30882163 [kcal/mol]      -1.29210971 [kJ/mol]
      Ind22                        -0.07685450 [mEh]      -0.04822693 [kcal/mol]      -0.20178146 [kJ/mol]
      Exch-Ind20,r                  0.14462295 [mEh]       0.09075227 [kcal/mol]       0.37970749 [kJ/mol]
      Exch-Ind22                    0.02258495 [mEh]       0.01417227 [kcal/mol]       0.05929677 [kJ/mol]
      delta HF,r (2)               -0.08031408 [mEh]      -0.05039785 [kcal/mol]      -0.21086460 [kJ/mol]

    Dispersion                     -1.32356797 [mEh]      -0.83055144 [kcal/mol]      -3.47502722 [kJ/mol]
      Disp20                       -1.23241593 [mEh]      -0.77335267 [kcal/mol]      -3.23570758 [kJ/mol]
      Disp21                        0.12574371 [mEh]       0.07890537 [kcal/mol]       0.33014007 [kJ/mol]
      Disp22 (SDQ)                 -0.06022562 [mEh]      -0.03779214 [kcal/mol]      -0.15812233 [kJ/mol]
      Disp22 (T)                   -0.19735214 [mEh]      -0.12384034 [kcal/mol]      -0.51814797 [kJ/mol]
      Est. Disp22 (T)              -0.21020318 [mEh]      -0.13190449 [kcal/mol]      -0.55188837 [kJ/mol]
      Exch-Disp20                   0.05353305 [mEh]       0.03359249 [kcal/mol]       0.14055100 [kJ/mol]

  Total HF                         -3.77189774 [mEh]      -2.36690157 [kcal/mol]      -9.90311615 [kJ/mol]
  Total SAPT0                      -4.95078062 [mEh]      -3.10666174 [kcal/mol]     -12.99827273 [kJ/mol]
  Total SAPT2                      -4.81971984 [mEh]      -3.02441986 [kcal/mol]     -12.65417269 [kJ/mol]
  Total SAPT2+                     -4.96440492 [mEh]      -3.11521112 [kcal/mol]     -13.03404332 [kJ/mol]

  Special recipe for scaled SAPT0 (see Manual):
    Electrostatics sSAPT0          -3.87075091 [mEh]      -2.42893287 [kcal/mol]     -10.16265512 [kJ/mol]
    Exchange sSAPT0                 0.52668291 [mEh]       0.33049852 [kcal/mol]       1.38280579 [kJ/mol]
    Induction sSAPT0               -0.42765525 [mEh]      -0.26835772 [kcal/mol]      -1.12280870 [kJ/mol]
    Dispersion sSAPT0              -1.17881830 [mEh]      -0.73971965 [kcal/mol]      -3.09498701 [kJ/mol]
  Total sSAPT0                     -4.95054155 [mEh]      -3.10651172 [kcal/mol]     -12.99764504 [kJ/mol]
  --------------------------------------------------------------------------------------------------------

*** Psi4 exiting successfully. Buy a developer a beer!
