                               Psi4 1.4a2.dev224

  ==> Input File <==

--------------------------------------------------------------------------
#Generated by lconvert.py for sapt job

memory 20 GB

molecule  {
0 1
  N      -2.266530    1.755160    0.352360
  C      -3.256290    0.724730    0.014240
  C      -2.422570   -0.289460   -0.775650
  C      -0.987250   -0.118690   -0.221530
  C      -1.119260    0.978990    0.839250
  H      -4.073720    1.148830   -0.565260
  H      -3.672930    0.252960    0.912840
  H      -2.802790   -1.300340   -0.649960
  H      -2.444770   -0.045290   -1.834260
  H      -0.590360   -1.037110    0.204170
  H      -0.318530    0.207680   -1.013410
  H      -1.319500    0.532970    1.821400
  H      -0.233290    1.605750    0.917350
  H      -2.617720    2.379590    1.069600
--
0 1
  O      -0.812910    3.159630   -3.845650
  H      -1.152980    3.067700   -2.936490
  H      -0.858210    4.101080   -4.018620
units angstrom
no_reorient
symmetry c1
}

set {
scf_type DF
basis aug-cc-pvdz
freeze_core True
guess SAD
}
energy('sapt2+')
--------------------------------------------------------------------------

  //              Dimer HF             //
    Molecular point group: c1
  Charge       = 0
  Multiplicity = 1
  Basis Set: AUG-CC-PVDZ
    Blend: AUG-CC-PVDZ
  Basis Set: (AUG-CC-PVDZ AUX)
    Blend: AUG-CC-PVDZ-JKFIT
  @DF-RHF Final Energy:  -287.21644465548178
    Total Energy =                       -287.2164446554817800
  //            Monomer A HF           //
    Molecular point group: c1
  Multiplicity = 1
  Basis Set: AUG-CC-PVDZ
    Blend: AUG-CC-PVDZ
  Basis Set: (AUG-CC-PVDZ AUX)
    Blend: AUG-CC-PVDZ-JKFIT
  @DF-RHF Final Energy:  -211.17363303835972
    Total Energy =                       -211.1736330383596965
  //            Monomer B HF           //
    Molecular point group: c1

    Geometry (in Angstrom), charge = 0, multiplicity = 1:

       Center              X                  Y                   Z               Mass
    ------------   -----------------  -----------------  -----------------  -----------------
      Gh(N)          -0.488353180270     0.613971510139     1.075736465744    14.003074004430
      Gh(C)          -1.478113180270    -0.416458489861     0.737616465744    12.000000000000
      Gh(C)          -0.644393180270    -1.430648489861    -0.052273534256    12.000000000000
      Gh(C)           0.790926819730    -1.259878489861     0.501846465744    12.000000000000
      Gh(C)           0.658916819730    -0.162198489861     1.562626465744    12.000000000000
      Gh(H)          -2.295543180270     0.007641510139     0.158116465744     1.007825032230
      Gh(H)          -1.894753180270    -0.888228489861     1.636216465744     1.007825032230
      Gh(H)          -1.024613180270    -2.441528489861     0.073416465744     1.007825032230
      Gh(H)          -0.666593180270    -1.186478489861    -1.110883534256     1.007825032230
      Gh(H)           1.187816819730    -2.178298489861     0.927546465744     1.007825032230
      Gh(H)           1.459646819730    -0.933508489861    -0.290033534256     1.007825032230
      Gh(H)           0.458676819730    -0.608218489861     2.544776465744     1.007825032230
      Gh(H)           1.544886819730     0.464561510139     1.640726465744     1.007825032230
      Gh(H)          -0.839543180270     1.238401510139     1.792976465744     1.007825032230
         O            0.965266819730     2.018441510139    -3.122273534256    15.994914619570
         H            0.625196819730     1.926511510139    -2.213113534256     1.007825032230
         H            0.919966819730     2.959891510139    -3.295243534256     1.007825032230

  Charge       = 0
  Multiplicity = 1
  Basis Set: AUG-CC-PVDZ
    Blend: AUG-CC-PVDZ
  Basis Set: (AUG-CC-PVDZ AUX)
    Blend: AUG-CC-PVDZ-JKFIT

    Orbital Energies [Eh]
    ---------------------

    Doubly Occupied:

       1A    -20.578963     2A     -1.352169     3A     -0.713489
       4A     -0.584503     5A     -0.508764

  @DF-RHF Final Energy:   -76.04064093417867

   => Energetics <=

    Nuclear Repulsion Energy =              9.1065827318099348
    One-Electron Energy =                -122.8186697889329366
    Two-Electron Energy =                  37.6714461229443245
    Total Energy =                        -76.0406409341786684

  Dipole Moment: [D]
     X:    -0.6518      Y:     1.4449      Z:     1.2428     Total:     2.0142

    SAPT Results
  --------------------------------------------------------------------------------------------------------
    Electrostatics                 -2.08029063 [mEh]      -1.30540208 [kcal/mol]      -5.46180229 [kJ/mol]
      Elst10,r                     -2.11272193 [mEh]      -1.32575303 [kcal/mol]      -5.54695067 [kJ/mol]
      Elst12,r                      0.03243131 [mEh]       0.02035095 [kcal/mol]       0.08514838 [kJ/mol]

    Exchange                        0.11790795 [mEh]       0.07398836 [kcal/mol]       0.30956729 [kJ/mol]
      Exch10                        0.08152665 [mEh]       0.05115875 [kcal/mol]       0.21404820 [kJ/mol]
      Exch10(S^2)                   0.08152057 [mEh]       0.05115493 [kcal/mol]       0.21403222 [kJ/mol]
      Exch11(S^2)                   0.00052459 [mEh]       0.00032918 [kcal/mol]       0.00137730 [kJ/mol]
      Exch12(S^2)                   0.03585672 [mEh]       0.02250043 [kcal/mol]       0.09414179 [kJ/mol]

    Induction                      -0.15306237 [mEh]      -0.09604809 [kcal/mol]      -0.40186520 [kJ/mol]
      Ind20,r                      -0.14649255 [mEh]      -0.09192546 [kcal/mol]      -0.38461613 [kJ/mol]
      Ind22                        -0.01594987 [mEh]      -0.01000870 [kcal/mol]      -0.04187639 [kJ/mol]
      Exch-Ind20,r                  0.02181486 [mEh]       0.01368903 [kcal/mol]       0.05727491 [kJ/mol]
      Exch-Ind22                    0.00237517 [mEh]       0.00149044 [kcal/mol]       0.00623600 [kJ/mol]
      delta HF,r (2)               -0.01480998 [mEh]      -0.00929340 [kcal/mol]      -0.03888359 [kJ/mol]

    Dispersion                     -0.58913034 [mEh]      -0.36968487 [kcal/mol]      -1.54676148 [kJ/mol]
      Disp20                       -0.54579867 [mEh]      -0.34249383 [kcal/mol]      -1.43299420 [kJ/mol]
      Disp21                        0.06355202 [mEh]       0.03987949 [kcal/mol]       0.16685580 [kJ/mol]
      Disp22 (SDQ)                 -0.02329331 [mEh]      -0.01461677 [kcal/mol]      -0.06115657 [kJ/mol]
      Disp22 (T)                   -0.08826058 [mEh]      -0.05538435 [kcal/mol]      -0.23172811 [kJ/mol]
      Est. Disp22 (T)              -0.09294414 [mEh]      -0.05832333 [kcal/mol]      -0.24402482 [kJ/mol]
      Exch-Disp20                   0.00935377 [mEh]       0.00586958 [kcal/mol]       0.02455831 [kJ/mol]

  Total HF                         -2.17068294 [mEh]      -1.36212411 [kcal/mol]      -5.69912728 [kJ/mol]
  Total SAPT0                      -2.70712785 [mEh]      -1.69874837 [kcal/mol]      -7.10756318 [kJ/mol]
  Total SAPT2                      -2.65188994 [mEh]      -1.66408606 [kcal/mol]      -6.96253609 [kJ/mol]
  Total SAPT2+                     -2.70457538 [mEh]      -1.69714667 [kcal/mol]      -7.10086168 [kJ/mol]

  Special recipe for scaled SAPT0 (see Manual):
    Electrostatics sSAPT0          -2.11272193 [mEh]      -1.32575303 [kcal/mol]      -5.54695067 [kJ/mol]
    Exchange sSAPT0                 0.08152665 [mEh]       0.05115875 [kcal/mol]       0.21404820 [kJ/mol]
    Induction sSAPT0               -0.13948278 [mEh]      -0.08752676 [kcal/mol]      -0.36621198 [kJ/mol]
    Dispersion sSAPT0              -0.53644281 [mEh]      -0.33662294 [kcal/mol]      -1.40843039 [kJ/mol]
  Total sSAPT0                     -2.70712086 [mEh]      -1.69874399 [kcal/mol]      -7.10754484 [kJ/mol]
  --------------------------------------------------------------------------------------------------------

*** Psi4 exiting successfully. Buy a developer a beer!
