                               Psi4 1.4a2.dev224

  ==> Input File <==

--------------------------------------------------------------------------
#Generated by lconvert.py for sapt job

memory 20 GB

molecule  {
0 1
  N      -2.266530    1.755160    0.352360
  C      -3.256290    0.724730    0.014240
  C      -2.422570   -0.289460   -0.775650
  C      -0.987250   -0.118690   -0.221530
  C      -1.119260    0.978990    0.839250
  H      -4.073720    1.148830   -0.565260
  H      -3.672930    0.252960    0.912840
  H      -2.802790   -1.300340   -0.649960
  H      -2.444770   -0.045290   -1.834260
  H      -0.590360   -1.037110    0.204170
  H      -0.318530    0.207680   -1.013410
  H      -1.319500    0.532970    1.821400
  H      -0.233290    1.605750    0.917350
  H      -2.617720    2.379590    1.069600
--
0 1
  O      -1.164560    2.745140   -2.807070
  H      -1.504620    2.653210   -1.897910
  H      -1.209860    3.686590   -2.980040
units angstrom
no_reorient
symmetry c1
}

set {
scf_type DF
basis aug-cc-pvdz
freeze_core True
guess SAD
}
energy('sapt2+')
--------------------------------------------------------------------------

  //              Dimer HF             //
    Molecular point group: c1
  Charge       = 0
  Multiplicity = 1
  Basis Set: AUG-CC-PVDZ
    Blend: AUG-CC-PVDZ
  Basis Set: (AUG-CC-PVDZ AUX)
    Blend: AUG-CC-PVDZ-JKFIT
  @DF-RHF Final Energy:  -287.22100745597027
    Total Energy =                       -287.2210074559702662
  //            Monomer A HF           //
    Molecular point group: c1
  Multiplicity = 1
  Basis Set: AUG-CC-PVDZ
    Blend: AUG-CC-PVDZ
  Basis Set: (AUG-CC-PVDZ AUX)
    Blend: AUG-CC-PVDZ-JKFIT
  @DF-RHF Final Energy:  -211.17376957311853
    Total Energy =                       -211.1737695731185340
  //            Monomer B HF           //
    Molecular point group: c1

    Geometry (in Angstrom), charge = 0, multiplicity = 1:

       Center              X                  Y                   Z               Mass
    ------------   -----------------  -----------------  -----------------  -----------------
      Gh(N)          -0.417258478142     0.697770998201     0.865761623621    14.003074004430
      Gh(C)          -1.407018478142    -0.332659001799     0.527641623621    12.000000000000
      Gh(C)          -0.573298478142    -1.346849001799    -0.262248376379    12.000000000000
      Gh(C)           0.862021521858    -1.176079001799     0.291871623621    12.000000000000
      Gh(C)           0.730011521858    -0.078399001799     1.352651623621    12.000000000000
      Gh(H)          -2.224448478142     0.091440998201    -0.051858376379     1.007825032230
      Gh(H)          -1.823658478142    -0.804429001799     1.426241623621     1.007825032230
      Gh(H)          -0.953518478142    -2.357729001799    -0.136558376379     1.007825032230
      Gh(H)          -0.595498478142    -1.102679001799    -1.320858376379     1.007825032230
      Gh(H)           1.258911521858    -2.094499001799     0.717571623621     1.007825032230
      Gh(H)           1.530741521858    -0.849709001799    -0.500008376379     1.007825032230
      Gh(H)           0.529771521858    -0.524419001799     2.334801623621     1.007825032230
      Gh(H)           1.615981521858     0.548360998201     1.430751623621     1.007825032230
      Gh(H)          -0.768448478142     1.322200998201     1.583001623621     1.007825032230
         O            0.684711521858     1.687750998201    -2.293668376379    15.994914619570
         H            0.344651521858     1.595820998201    -1.384508376379     1.007825032230
         H            0.639411521858     2.629200998201    -2.466638376379     1.007825032230

  Charge       = 0
  Multiplicity = 1
  Basis Set: AUG-CC-PVDZ
    Blend: AUG-CC-PVDZ
  Basis Set: (AUG-CC-PVDZ AUX)
    Blend: AUG-CC-PVDZ-JKFIT

    Orbital Energies [Eh]
    ---------------------

    Doubly Occupied:

       1A    -20.578867     2A     -1.352173     3A     -0.713456
       4A     -0.584411     5A     -0.508670

  @DF-RHF Final Energy:   -76.04085286323247

   => Energetics <=

    Nuclear Repulsion Energy =              9.1065987029703095
    One-Electron Energy =                -122.8197470420938089
    Two-Electron Energy =                  37.6722954758910404
    Total Energy =                        -76.0408528632324590

  Dipole Moment: [D]
     X:    -0.6518      Y:     1.4449      Z:     1.2428     Total:     2.0143

    SAPT Results
  --------------------------------------------------------------------------------------------------------
    Electrostatics                 -8.34944752 [mEh]      -5.23935742 [kcal/mol]     -21.92147144 [kJ/mol]
      Elst10,r                     -8.16097746 [mEh]      -5.12109067 [kcal/mol]     -21.42664338 [kJ/mol]
      Elst12,r                     -0.18847005 [mEh]      -0.11826674 [kcal/mol]      -0.49482806 [kJ/mol]

    Exchange                        4.26179777 [mEh]       2.67431847 [kcal/mol]      11.18934849 [kJ/mol]
      Exch10                        3.37337011 [mEh]       2.11682170 [kcal/mol]       8.85678201 [kJ/mol]
      Exch10(S^2)                   3.36606204 [mEh]       2.11223582 [kcal/mol]       8.83759466 [kJ/mol]
      Exch11(S^2)                   0.03797419 [mEh]       0.02382917 [kcal/mol]       0.09970123 [kJ/mol]
      Exch12(S^2)                   0.85045346 [mEh]       0.53366760 [kcal/mol]       2.23286526 [kJ/mol]

    Induction                      -1.79628649 [mEh]      -1.12718679 [kcal/mol]      -4.71614952 [kJ/mol]
      Ind20,r                      -2.07123500 [mEh]      -1.29971958 [kcal/mol]      -5.43802673 [kJ/mol]
      Ind22                        -0.36909307 [mEh]      -0.23160940 [kcal/mol]      -0.96905372 [kJ/mol]
      Exch-Ind20,r                  0.95521501 [mEh]       0.59940647 [kcal/mol]       2.50791666 [kJ/mol]
      Exch-Ind22                    0.17021885 [mEh]       0.10681394 [kcal/mol]       0.44690953 [kJ/mol]
      delta HF,r (2)               -0.48139228 [mEh]      -0.30207822 [kcal/mol]      -1.26389526 [kJ/mol]

    Dispersion                     -3.20687400 [mEh]      -2.01234381 [kcal/mol]      -8.41964652 [kJ/mol]
      Disp20                       -3.11172291 [mEh]      -1.95263560 [kcal/mol]      -8.16982737 [kJ/mol]
      Disp21                        0.28873542 [mEh]       0.18118421 [kcal/mol]       0.75807473 [kJ/mol]
      Disp22 (SDQ)                 -0.16175999 [mEh]      -0.10150593 [kcal/mol]      -0.42470080 [kJ/mol]
      Disp22 (T)                   -0.47505046 [mEh]      -0.29809867 [kcal/mol]      -1.24724482 [kJ/mol]
      Est. Disp22 (T)              -0.52083545 [mEh]      -0.32682918 [kcal/mol]      -1.36745329 [kJ/mol]
      Exch-Disp20                   0.29870893 [mEh]       0.18744269 [kcal/mol]       0.78426019 [kJ/mol]

  Total HF                         -6.38501962 [mEh]      -4.00666030 [kcal/mol]     -16.76386670 [kJ/mol]
  Total SAPT0                      -9.19803359 [mEh]      -5.77185322 [kcal/mol]     -24.14943388 [kJ/mol]
  Total SAPT2                      -8.69695021 [mEh]      -5.45741865 [kcal/mol]     -22.83383964 [kJ/mol]
  Total SAPT2+                     -9.09081024 [mEh]      -5.70456955 [kcal/mol]     -23.86791899 [kJ/mol]

  Special recipe for scaled SAPT0 (see Manual):
    Electrostatics sSAPT0          -8.16097746 [mEh]      -5.12109067 [kcal/mol]     -21.42664338 [kJ/mol]
    Exchange sSAPT0                 3.37337011 [mEh]       2.11682170 [kcal/mol]       8.85678201 [kJ/mol]
    Induction sSAPT0               -1.59117713 [mEh]      -0.99847872 [kcal/mol]      -4.17763499 [kJ/mol]
    Dispersion sSAPT0              -2.81106416 [mEh]      -1.76396939 [kcal/mol]      -7.38044794 [kJ/mol]
  Total sSAPT0                     -9.18984865 [mEh]      -5.76671709 [kcal/mol]     -24.12794430 [kJ/mol]
  --------------------------------------------------------------------------------------------------------

*** Psi4 exiting successfully. Buy a developer a beer!
