                               Psi4 1.4a2.dev224

  ==> Input File <==

--------------------------------------------------------------------------
#Generated by lconvert.py for sapt job

memory 20 GB

molecule  {
0 1
  C      -3.904190    0.464230    0.173390
  C      -3.131950    1.494990    0.704750
  C      -1.763680    1.547210    0.454380
  C      -1.172050    0.560880   -0.333670
  C      -1.933130   -0.472460   -0.870840
  C      -3.300910   -0.514670   -0.611530
  O      -4.016840   -1.554910   -1.157160
  H      -4.969020    0.422110    0.369330
  H      -3.604730    2.253400    1.313310
  H      -1.165630    2.346970    0.866930
  H      -0.110510    0.593760   -0.536420
  H      -1.488590   -1.240700   -1.488160
  H      -4.945500   -1.431020   -0.935450
--
0 1
  O      -1.744880   -4.067830   -3.655180
  H      -1.788620   -4.982790   -3.373130
  H      -2.425400   -3.632640   -3.130060
units angstrom
no_reorient
symmetry c1
}

set {
scf_type DF
basis aug-cc-pvdz
freeze_core True
guess SAD
}
energy('sapt2+')
--------------------------------------------------------------------------

  //              Dimer HF             //
    Molecular point group: c1
  Charge       = 0
  Multiplicity = 1
  Basis Set: AUG-CC-PVDZ
    Blend: AUG-CC-PVDZ
  Basis Set: (AUG-CC-PVDZ AUX)
    Blend: AUG-CC-PVDZ-JKFIT
  @DF-RHF Final Energy:  -381.64428833054973
    Total Energy =                       -381.6442883305497276
  //            Monomer A HF           //
    Molecular point group: c1
  Multiplicity = 1
  Basis Set: AUG-CC-PVDZ
    Blend: AUG-CC-PVDZ
  Basis Set: (AUG-CC-PVDZ AUX)
    Blend: AUG-CC-PVDZ-JKFIT
  @DF-RHF Final Energy:  -305.60111756728099
    Total Energy =                       -305.6011175672809941
  //            Monomer B HF           //
    Molecular point group: c1

    Geometry (in Angstrom), charge = 0, multiplicity = 1:

       Center              X                  Y                   Z               Mass
    ------------   -----------------  -----------------  -----------------  -----------------
      Gh(C)          -1.268927754477     0.987988133090     0.974291482969    12.000000000000
      Gh(C)          -0.496687754477     2.018748133090     1.505651482969    12.000000000000
      Gh(C)           0.871582245523     2.070968133090     1.255281482969    12.000000000000
      Gh(C)           1.463212245523     1.084638133090     0.467231482969    12.000000000000
      Gh(C)           0.702132245523     0.051298133090    -0.069938517031    12.000000000000
      Gh(C)          -0.665647754477     0.009088133090     0.189371482969    12.000000000000
      Gh(O)          -1.381577754477    -1.031151866910    -0.356258517031    15.994914619570
      Gh(H)          -2.333757754477     0.945868133090     1.170231482969     1.007825032230
      Gh(H)          -0.969467754477     2.777158133090     2.114211482969     1.007825032230
      Gh(H)           1.469632245523     2.870728133090     1.667831482969     1.007825032230
      Gh(H)           2.524752245523     1.117518133090     0.264481482969     1.007825032230
      Gh(H)           1.146672245523    -0.716941866910    -0.687258517031     1.007825032230
      Gh(H)          -2.310237754477    -0.907261866910    -0.134548517031     1.007825032230
         O            0.890382245523    -3.544071866910    -2.854278517031    15.994914619570
         H            0.846642245523    -4.459031866910    -2.572228517031     1.007825032230
         H            0.209862245523    -3.108881866910    -2.329158517031     1.007825032230

  Charge       = 0
  Multiplicity = 1
  Basis Set: AUG-CC-PVDZ
    Blend: AUG-CC-PVDZ
  Basis Set: (AUG-CC-PVDZ AUX)
    Blend: AUG-CC-PVDZ-JKFIT

    Orbital Energies [Eh]
    ---------------------

    Doubly Occupied:

       1A    -20.578244     2A     -1.355246     3A     -0.715865
       4A     -0.586282     5A     -0.509305

  @DF-RHF Final Energy:   -76.04123139023766

   => Energetics <=

    Nuclear Repulsion Energy =              9.1608352122689602
    One-Electron Energy =                -122.9142483276572761
    Two-Electron Energy =                  37.7121817251506570
    Total Energy =                        -76.0412313902376553

  Dipole Moment: [D]
     X:    -1.2297      Y:    -0.8174      Z:     1.3722     Total:     2.0158

    SAPT Results
  --------------------------------------------------------------------------------------------------------
    Electrostatics                 -1.75024718 [mEh]      -1.09829669 [kcal/mol]      -4.59527334 [kJ/mol]
      Elst10,r                     -1.94030015 [mEh]      -1.21755673 [kcal/mol]      -5.09425734 [kJ/mol]
      Elst12,r                      0.19005297 [mEh]       0.11926004 [kcal/mol]       0.49898400 [kJ/mol]

    Exchange                        0.18748740 [mEh]       0.11765012 [kcal/mol]       0.49224810 [kJ/mol]
      Exch10                        0.13517652 [mEh]       0.08482455 [kcal/mol]       0.35490592 [kJ/mol]
      Exch10(S^2)                   0.13516242 [mEh]       0.08481570 [kcal/mol]       0.35486887 [kJ/mol]
      Exch11(S^2)                  -0.00182914 [mEh]      -0.00114780 [kcal/mol]      -0.00480241 [kJ/mol]
      Exch12(S^2)                   0.05414002 [mEh]       0.03397337 [kcal/mol]       0.14214460 [kJ/mol]

    Induction                      -0.14133822 [mEh]      -0.08869107 [kcal/mol]      -0.37108343 [kJ/mol]
      Ind20,r                      -0.13652965 [mEh]      -0.08567365 [kcal/mol]      -0.35845855 [kJ/mol]
      Ind22                        -0.00806669 [mEh]      -0.00506192 [kcal/mol]      -0.02117909 [kJ/mol]
      Exch-Ind20,r                  0.01655073 [mEh]       0.01038574 [kcal/mol]       0.04345393 [kJ/mol]
      Exch-Ind22                    0.00097788 [mEh]       0.00061363 [kcal/mol]       0.00256742 [kJ/mol]
      delta HF,r (2)               -0.01427048 [mEh]      -0.00895486 [kcal/mol]      -0.03746715 [kJ/mol]

    Dispersion                     -0.68234430 [mEh]      -0.42817751 [kcal/mol]      -1.79149471 [kJ/mol]
      Disp20                       -0.61518210 [mEh]      -0.38603259 [kcal/mol]      -1.61516037 [kJ/mol]
      Disp21                        0.05936552 [mEh]       0.03725242 [kcal/mol]       0.15586415 [kJ/mol]
      Disp22 (SDQ)                 -0.02287830 [mEh]      -0.01435635 [kcal/mol]      -0.06006697 [kJ/mol]
      Disp22 (T)                   -0.11108656 [mEh]      -0.06970787 [kcal/mol]      -0.29165773 [kJ/mol]
      Est. Disp22 (T)              -0.11718496 [mEh]      -0.07353467 [kcal/mol]      -0.30766907 [kJ/mol]
      Exch-Disp20                   0.01353554 [mEh]       0.00849368 [kcal/mol]       0.03553755 [kJ/mol]

  Total HF                         -1.93937303 [mEh]      -1.21697495 [kcal/mol]      -5.09182319 [kJ/mol]
  Total SAPT0                      -2.54101959 [mEh]      -1.59451387 [kcal/mol]      -6.67144601 [kJ/mol]
  Total SAPT2                      -2.30574455 [mEh]      -1.44687655 [kcal/mol]      -6.05373149 [kJ/mol]
  Total SAPT2+                     -2.38644230 [mEh]      -1.49751515 [kcal/mol]      -6.26560338 [kJ/mol]

  Special recipe for scaled SAPT0 (see Manual):
    Electrostatics sSAPT0          -1.94030015 [mEh]      -1.21755673 [kcal/mol]      -5.09425734 [kJ/mol]
    Exchange sSAPT0                 0.13517652 [mEh]       0.08482455 [kcal/mol]       0.35490592 [kJ/mol]
    Induction sSAPT0               -0.13424422 [mEh]      -0.08423952 [kcal/mol]      -0.35245816 [kJ/mol]
    Dispersion sSAPT0              -0.60164232 [mEh]      -0.37753625 [kcal/mol]      -1.57961169 [kJ/mol]
  Total sSAPT0                     -2.54101017 [mEh]      -1.59450795 [kcal/mol]      -6.67142127 [kJ/mol]
  --------------------------------------------------------------------------------------------------------

*** Psi4 exiting successfully. Buy a developer a beer!
