                               Psi4 1.4a2.dev224

  ==> Input File <==

--------------------------------------------------------------------------
#Generated by lconvert.py for sapt job

memory 20 GB

molecule  {
0 1
  C      -3.904190    0.464230    0.173390
  C      -3.131950    1.494990    0.704750
  C      -1.763680    1.547210    0.454380
  C      -1.172050    0.560880   -0.333670
  C      -1.933130   -0.472460   -0.870840
  C      -3.300910   -0.514670   -0.611530
  O      -4.016840   -1.554910   -1.157160
  H      -4.969020    0.422110    0.369330
  H      -3.604730    2.253400    1.313310
  H      -1.165630    2.346970    0.866930
  H      -0.110510    0.593760   -0.536420
  H      -1.488590   -1.240700   -1.488160
  H      -4.945500   -1.431020   -0.935450
--
0 1
  O      -2.043280   -3.678260   -3.285260
  H      -2.087010   -4.593210   -3.003220
  H      -2.723800   -3.243060   -2.760140
units angstrom
no_reorient
symmetry c1
}

set {
scf_type DF
basis aug-cc-pvdz
freeze_core True
guess SAD
}
energy('sapt2+')
--------------------------------------------------------------------------

  //              Dimer HF             //
    Molecular point group: c1
  Charge       = 0
  Multiplicity = 1
  Basis Set: AUG-CC-PVDZ
    Blend: AUG-CC-PVDZ
  Basis Set: (AUG-CC-PVDZ AUX)
    Blend: AUG-CC-PVDZ-JKFIT
  @DF-RHF Final Energy:  -381.64586405526188
    Total Energy =                       -381.6458640552618817
  //            Monomer A HF           //
    Molecular point group: c1
  Multiplicity = 1
  Basis Set: AUG-CC-PVDZ
    Blend: AUG-CC-PVDZ
  Basis Set: (AUG-CC-PVDZ AUX)
    Blend: AUG-CC-PVDZ-JKFIT
  @DF-RHF Final Energy:  -305.60116890268336
    Total Energy =                       -305.6011689026833551
  //            Monomer B HF           //
    Molecular point group: c1

    Geometry (in Angstrom), charge = 0, multiplicity = 1:

       Center              X                  Y                   Z               Mass
    ------------   -----------------  -----------------  -----------------  -----------------
      Gh(C)          -1.220965006613     0.925371053997     0.914833084436    12.000000000000
      Gh(C)          -0.448725006613     1.956131053997     1.446193084436    12.000000000000
      Gh(C)           0.919544993387     2.008351053997     1.195823084436    12.000000000000
      Gh(C)           1.511174993387     1.022021053997     0.407773084436    12.000000000000
      Gh(C)           0.750094993387    -0.011318946003    -0.129396915564    12.000000000000
      Gh(C)          -0.617685006613    -0.053528946003     0.129913084436    12.000000000000
      Gh(O)          -1.333615006613    -1.093768946003    -0.415716915564    15.994914619570
      Gh(H)          -2.285795006613     0.883251053997     1.110773084436     1.007825032230
      Gh(H)          -0.921505006613     2.714541053997     2.054753084436     1.007825032230
      Gh(H)           1.517594993387     2.808111053997     1.608373084436     1.007825032230
      Gh(H)           2.572714993387     1.054901053997     0.205023084436     1.007825032230
      Gh(H)           1.194634993387    -0.779558946003    -0.746716915564     1.007825032230
      Gh(H)          -2.262275006613    -0.969878946003    -0.194006915564     1.007825032230
         O            0.639944993387    -3.217118946003    -2.543816915564    15.994914619570
         H            0.596214993387    -4.132068946003    -2.261776915564     1.007825032230
         H           -0.040575006613    -2.781918946003    -2.018696915564     1.007825032230

  Charge       = 0
  Multiplicity = 1
  Basis Set: AUG-CC-PVDZ
    Blend: AUG-CC-PVDZ
  Basis Set: (AUG-CC-PVDZ AUX)
    Blend: AUG-CC-PVDZ-JKFIT

    Orbital Energies [Eh]
    ---------------------

    Doubly Occupied:

       1A    -20.578243     2A     -1.355238     3A     -0.715867
       4A     -0.586260     5A     -0.509265

  @DF-RHF Final Energy:   -76.04129179816834

   => Energetics <=

    Nuclear Repulsion Energy =              9.1608729252487677
    One-Electron Energy =                -122.9145837499564777
    Two-Electron Energy =                  37.7124190265393509
    Total Energy =                        -76.0412917981683592

  Dipole Moment: [D]
     X:    -1.2299      Y:    -0.8173      Z:     1.3711     Total:     2.0151

    SAPT Results
  --------------------------------------------------------------------------------------------------------
    Electrostatics                 -3.73761196 [mEh]      -2.34538691 [kcal/mol]      -9.81309884 [kJ/mol]
      Elst10,r                     -3.98774570 [mEh]      -2.50234820 [kcal/mol]     -10.46982488 [kJ/mol]
      Elst12,r                      0.25013374 [mEh]       0.15696129 [kcal/mol]       0.65672604 [kJ/mol]

    Exchange                        1.41901332 [mEh]       0.89044430 [kcal/mol]       3.72561895 [kJ/mol]
      Exch10                        1.08739394 [mEh]       0.68235000 [kcal/mol]       2.85495238 [kJ/mol]
      Exch10(S^2)                   1.08671780 [mEh]       0.68192571 [kcal/mol]       2.85317719 [kJ/mol]
      Exch11(S^2)                  -0.00823190 [mEh]      -0.00516560 [kcal/mol]      -0.02161285 [kJ/mol]
      Exch12(S^2)                   0.33985128 [mEh]       0.21325990 [kcal/mol]       0.89227942 [kJ/mol]

    Induction                      -0.55699092 [mEh]      -0.34951708 [kcal/mol]      -1.46237945 [kJ/mol]
      Ind20,r                      -0.55435373 [mEh]      -0.34786221 [kcal/mol]      -1.45545551 [kJ/mol]
      Ind22                        -0.07611537 [mEh]      -0.04776312 [kcal/mol]      -0.19984089 [kJ/mol]
      Exch-Ind20,r                  0.16115332 [mEh]       0.10112523 [kcal/mol]       0.42310798 [kJ/mol]
      Exch-Ind22                    0.02212711 [mEh]       0.01388497 [kcal/mol]       0.05809472 [kJ/mol]
      delta HF,r (2)               -0.10980224 [mEh]      -0.06890195 [kcal/mol]      -0.28828575 [kJ/mol]

    Dispersion                     -1.69266145 [mEh]      -1.06216109 [kcal/mol]      -4.44408202 [kJ/mol]
      Disp20                       -1.55032870 [mEh]      -0.97284594 [kcal/mol]      -4.07038743 [kJ/mol]
      Disp21                        0.12194735 [mEh]       0.07652311 [kcal/mol]       0.32017271 [kJ/mol]
      Disp22 (SDQ)                 -0.06893085 [mEh]      -0.04325476 [kcal/mol]      -0.18097791 [kJ/mol]
      Disp22 (T)                   -0.26448396 [mEh]      -0.16596619 [kcal/mol]      -0.69440254 [kJ/mol]
      Est. Disp22 (T)              -0.28625491 [mEh]      -0.17962767 [kcal/mol]      -0.75156218 [kJ/mol]
      Exch-Disp20                   0.09090567 [mEh]       0.05704417 [kcal/mol]       0.23867279 [kJ/mol]

  Total HF                         -3.40335441 [mEh]      -2.13563714 [kcal/mol]      -8.93550577 [kJ/mol]
  Total SAPT0                      -4.86277744 [mEh]      -3.05143891 [kcal/mol]     -12.76722041 [kJ/mol]
  Total SAPT2                      -4.33501259 [mEh]      -2.72026147 [kcal/mol]     -11.38157397 [kJ/mol]
  Total SAPT2+                     -4.56825100 [mEh]      -2.86662078 [kcal/mol]     -11.99394135 [kJ/mol]

  Special recipe for scaled SAPT0 (see Manual):
    Electrostatics sSAPT0          -3.98774570 [mEh]      -2.50234820 [kcal/mol]     -10.46982488 [kJ/mol]
    Exchange sSAPT0                 1.08739394 [mEh]       0.68235000 [kcal/mol]       2.85495238 [kJ/mol]
    Induction sSAPT0               -0.50270166 [mEh]      -0.31545006 [kcal/mol]      -1.31984303 [kJ/mol]
    Dispersion sSAPT0              -1.45925325 [mEh]      -0.91569524 [kcal/mol]      -3.83126887 [kJ/mol]
  Total sSAPT0                     -4.86230667 [mEh]      -3.05114350 [kcal/mol]     -12.76598440 [kJ/mol]
  --------------------------------------------------------------------------------------------------------

*** Psi4 exiting successfully. Buy a developer a beer!
