                               Psi4 1.4a2.dev224

  ==> Input File <==

--------------------------------------------------------------------------
#Generated by lconvert.py for sapt job

memory 20 GB

molecule  {
0 1
  C      -3.904190    0.464230    0.173390
  C      -3.131950    1.494990    0.704750
  C      -1.763680    1.547210    0.454380
  C      -1.172050    0.560880   -0.333670
  C      -1.933130   -0.472460   -0.870840
  C      -3.300910   -0.514670   -0.611530
  O      -4.016840   -1.554910   -1.157160
  H      -4.969020    0.422110    0.369330
  H      -3.604730    2.253400    1.313310
  H      -1.165630    2.346970    0.866930
  H      -0.110510    0.593760   -0.536420
  H      -1.488590   -1.240700   -1.488160
  H      -4.945500   -1.431020   -0.935450
--
0 1
  O      -1.446490   -4.457410   -4.025100
  H      -1.490220   -5.372360   -3.743050
  H      -2.127010   -4.022210   -3.499970
units angstrom
no_reorient
symmetry c1
}

set {
scf_type DF
basis aug-cc-pvdz
freeze_core True
guess SAD
}
energy('sapt2+')
--------------------------------------------------------------------------

  //              Dimer HF             //
    Molecular point group: c1
  Charge       = 0
  Multiplicity = 1
  Basis Set: AUG-CC-PVDZ
    Blend: AUG-CC-PVDZ
  Basis Set: (AUG-CC-PVDZ AUX)
    Blend: AUG-CC-PVDZ-JKFIT
  @DF-RHF Final Energy:  -381.64334740820357
    Total Energy =                       -381.6433474082035673
  //            Monomer A HF           //
    Molecular point group: c1
  Multiplicity = 1
  Basis Set: AUG-CC-PVDZ
    Blend: AUG-CC-PVDZ
  Basis Set: (AUG-CC-PVDZ AUX)
    Blend: AUG-CC-PVDZ-JKFIT
  @DF-RHF Final Energy:  -305.60107188180831
    Total Energy =                       -305.6010718818083092
  //            Monomer B HF           //
    Molecular point group: c1

    Geometry (in Angstrom), charge = 0, multiplicity = 1:

       Center              X                  Y                   Z               Mass
    ------------   -----------------  -----------------  -----------------  -----------------
      Gh(C)          -1.316889074891     1.050606459749     1.033749881502    12.000000000000
      Gh(C)          -0.544649074891     2.081366459749     1.565109881502    12.000000000000
      Gh(C)           0.823620925109     2.133586459749     1.314739881502    12.000000000000
      Gh(C)           1.415250925109     1.147256459749     0.526689881502    12.000000000000
      Gh(C)           0.654170925109     0.113916459749    -0.010480118498    12.000000000000
      Gh(C)          -0.713609074891     0.071706459749     0.248829881502    12.000000000000
      Gh(O)          -1.429539074891    -0.968533540251    -0.296800118498    15.994914619570
      Gh(H)          -2.381719074891     1.008486459749     1.229689881502     1.007825032230
      Gh(H)          -1.017429074891     2.839776459749     2.173669881502     1.007825032230
      Gh(H)           1.421670925109     2.933346459749     1.727289881502     1.007825032230
      Gh(H)           2.476790925109     1.180136459749     0.323939881502     1.007825032230
      Gh(H)           1.098710925109    -0.654323540251    -0.627800118498     1.007825032230
      Gh(H)          -2.358199074891    -0.844643540251    -0.075090118498     1.007825032230
         O            1.140810925109    -3.871033540251    -3.164740118498    15.994914619570
         H            1.097080925109    -4.785983540251    -2.882690118498     1.007825032230
         H            0.460290925109    -3.435833540251    -2.639610118498     1.007825032230

  Charge       = 0
  Multiplicity = 1
  Basis Set: AUG-CC-PVDZ
    Blend: AUG-CC-PVDZ
  Basis Set: (AUG-CC-PVDZ AUX)
    Blend: AUG-CC-PVDZ-JKFIT

    Orbital Energies [Eh]
    ---------------------

    Doubly Occupied:

       1A    -20.578218     2A     -1.355258     3A     -0.715880
       4A     -0.586316     5A     -0.509334

  @DF-RHF Final Energy:   -76.04116770038456

   => Energetics <=

    Nuclear Repulsion Energy =              9.1608345063379364
    One-Electron Energy =                -122.9139924196332458
    Two-Electron Energy =                  37.7119902129107487
    Total Energy =                        -76.0411677003845625

  Dipole Moment: [D]
     X:    -1.2291      Y:    -0.8166      Z:     1.3721     Total:     2.0150

    SAPT Results
  --------------------------------------------------------------------------------------------------------
    Electrostatics                 -0.94894484 [mEh]      -0.59547188 [kcal/mol]      -2.49145435 [kJ/mol]
      Elst10,r                     -1.07594243 [mEh]      -0.67516407 [kcal/mol]      -2.82488646 [kJ/mol]
      Elst12,r                      0.12699758 [mEh]       0.07969219 [kcal/mol]       0.33343211 [kJ/mol]

    Exchange                        0.02428572 [mEh]       0.01523952 [kcal/mol]       0.06376214 [kJ/mol]
      Exch10                        0.01656824 [mEh]       0.01039673 [kcal/mol]       0.04349992 [kJ/mol]
      Exch10(S^2)                   0.01656796 [mEh]       0.01039655 [kcal/mol]       0.04349917 [kJ/mol]
      Exch11(S^2)                  -0.00030894 [mEh]      -0.00019386 [kcal/mol]      -0.00081111 [kJ/mol]
      Exch12(S^2)                   0.00802641 [mEh]       0.00503665 [kcal/mol]       0.02107333 [kJ/mol]

    Induction                      -0.04832131 [mEh]      -0.03032208 [kcal/mol]      -0.12686759 [kJ/mol]
      Ind20,r                      -0.04817747 [mEh]      -0.03023182 [kcal/mol]      -0.12648992 [kJ/mol]
      Ind22                         0.00013561 [mEh]       0.00008510 [kcal/mol]       0.00035604 [kJ/mol]
      Exch-Ind20,r                  0.00181004 [mEh]       0.00113582 [kcal/mol]       0.00475226 [kJ/mol]
      Exch-Ind22                   -0.00000509 [mEh]      -0.00000320 [kcal/mol]      -0.00001338 [kJ/mol]
      delta HF,r (2)               -0.00208440 [mEh]      -0.00130798 [kcal/mol]      -0.00547260 [kJ/mol]

    Dispersion                     -0.30698658 [mEh]      -0.19263699 [kcal/mol]      -0.80599316 [kJ/mol]
      Disp20                       -0.27865361 [mEh]      -0.17485778 [kcal/mol]      -0.73160496 [kJ/mol]
      Disp21                        0.03237161 [mEh]       0.02031349 [kcal/mol]       0.08499166 [kJ/mol]
      Disp22 (SDQ)                 -0.00837745 [mEh]      -0.00525693 [kcal/mol]      -0.02199500 [kJ/mol]
      Disp22 (T)                   -0.05245264 [mEh]      -0.03291453 [kcal/mol]      -0.13771440 [kJ/mol]
      Est. Disp22 (T)              -0.05430636 [mEh]      -0.03407776 [kcal/mol]      -0.14258134 [kJ/mol]
      Exch-Disp20                   0.00197924 [mEh]       0.00124199 [kcal/mol]       0.00519648 [kJ/mol]

  Total HF                         -1.10782601 [mEh]      -0.69517132 [kcal/mol]      -2.90859679 [kJ/mol]
  Total SAPT0                      -1.38450039 [mEh]      -0.86878711 [kcal/mol]      -3.63500527 [kJ/mol]
  Total SAPT2                      -1.24965482 [mEh]      -0.78417024 [kcal/mol]      -3.28096827 [kJ/mol]
  Total SAPT2+                     -1.27996702 [mEh]      -0.80319143 [kcal/mol]      -3.36055296 [kJ/mol]

  Special recipe for scaled SAPT0 (see Manual):
    Electrostatics sSAPT0          -1.07594243 [mEh]      -0.67516407 [kcal/mol]      -2.82488646 [kJ/mol]
    Exchange sSAPT0                 0.01656824 [mEh]       0.01039673 [kcal/mol]       0.04349992 [kJ/mol]
    Induction sSAPT0               -0.04845173 [mEh]      -0.03040392 [kcal/mol]      -0.12721001 [kJ/mol]
    Dispersion sSAPT0              -0.27667427 [mEh]      -0.17361573 [kcal/mol]      -0.72640821 [kJ/mol]
  Total sSAPT0                     -1.38450019 [mEh]      -0.86878699 [kcal/mol]      -3.63500475 [kJ/mol]
  --------------------------------------------------------------------------------------------------------

*** Psi4 exiting successfully. Buy a developer a beer!
