                               Psi4 1.4a2.dev224

  ==> Input File <==

--------------------------------------------------------------------------
#Generated by lconvert.py for sapt job

memory 20 GB

molecule  {
0 1
  C      -3.555220   -0.145050    0.625060
  C      -3.185550    1.196340    0.554090
  C      -1.965330    1.566370   -0.005380
  C      -1.113310    0.577740   -0.495980
  C      -1.473890   -0.763770   -0.429410
  C      -2.697760   -1.131260    0.132030
  O      -3.000300   -2.456700    0.171870
  H      -4.503840   -0.431940    1.060060
  H      -3.857480    1.951680    0.939040
  H      -1.682140    2.607900   -0.058620
  H      -0.162200    0.849850   -0.933370
  H      -0.822580   -1.539990   -0.806080
  H      -3.872060   -2.569580    0.583710
--
0 1
  O      -6.578580   -3.227200    1.837800
  H      -7.240540   -3.642520    1.280230
  H      -6.583070   -3.751690    2.641820
units angstrom
no_reorient
symmetry c1
}

set {
scf_type DF
basis aug-cc-pvdz
freeze_core True
guess SAD
}
energy('sapt2+')
--------------------------------------------------------------------------

  //              Dimer HF             //
    Molecular point group: c1
  Charge       = 0
  Multiplicity = 1
  Basis Set: AUG-CC-PVDZ
    Blend: AUG-CC-PVDZ
  Basis Set: (AUG-CC-PVDZ AUX)
    Blend: AUG-CC-PVDZ-JKFIT
  @DF-RHF Final Energy:  -381.64635812304692
    Total Energy =                       -381.6463581230469231
  //            Monomer A HF           //
    Molecular point group: c1
  Multiplicity = 1
  Basis Set: AUG-CC-PVDZ
    Blend: AUG-CC-PVDZ
  Basis Set: (AUG-CC-PVDZ AUX)
    Blend: AUG-CC-PVDZ-JKFIT
  @DF-RHF Final Energy:  -305.60092747196546
    Total Energy =                       -305.6009274719654627
  //            Monomer B HF           //
    Molecular point group: c1

    Geometry (in Angstrom), charge = 0, multiplicity = 1:

       Center              X                  Y                   Z               Mass
    ------------   -----------------  -----------------  -----------------  -----------------
      Gh(C)          -0.431193463100     0.585736596983     0.255116741893    12.000000000000
      Gh(C)          -0.061523463100     1.927126596983     0.184146741893    12.000000000000
      Gh(C)           1.158696536900     2.297156596983    -0.375323258107    12.000000000000
      Gh(C)           2.010716536900     1.308526596983    -0.865923258107    12.000000000000
      Gh(C)           1.650136536900    -0.032983403017    -0.799353258107    12.000000000000
      Gh(C)           0.426266536900    -0.400473403017    -0.237913258107    12.000000000000
      Gh(O)           0.123726536900    -1.725913403017    -0.198073258107    15.994914619570
      Gh(H)          -1.379813463100     0.298846596983     0.690116741893     1.007825032230
      Gh(H)          -0.733453463100     2.682466596983     0.569096741893     1.007825032230
      Gh(H)           1.441886536900     3.338686596983    -0.428563258107     1.007825032230
      Gh(H)           2.961826536900     1.580636596983    -1.303313258107     1.007825032230
      Gh(H)           2.301446536900    -0.809203403017    -1.176023258107     1.007825032230
      Gh(H)          -0.748033463100    -1.838793403017     0.213766741893     1.007825032230
         O           -3.454553463100    -2.496413403017     1.467856741893    15.994914619570
         H           -4.116513463100    -2.911733403017     0.910286741893     1.007825032230
         H           -3.459043463100    -3.020903403017     2.271876741893     1.007825032230

  Charge       = 0
  Multiplicity = 1
  Basis Set: AUG-CC-PVDZ
    Blend: AUG-CC-PVDZ
  Basis Set: (AUG-CC-PVDZ AUX)
    Blend: AUG-CC-PVDZ-JKFIT

    Orbital Energies [Eh]
    ---------------------

    Doubly Occupied:

       1A    -20.577867     2A     -1.355424     3A     -0.717376
       4A     -0.585560     5A     -0.509267

  @DF-RHF Final Energy:   -76.04135233009782

   => Energetics <=

    Nuclear Repulsion Energy =              9.1688741057903478
    One-Electron Energy =                -122.9294635780368026
    Two-Electron Energy =                  37.7192371421486214
    Total Energy =                        -76.0413523300978227

  Dipole Moment: [D]
     X:    -1.1346      Y:    -1.5999      Z:     0.4196     Total:     2.0058

    SAPT Results
  --------------------------------------------------------------------------------------------------------
    Electrostatics                 -3.64244487 [mEh]      -2.28566866 [kcal/mol]      -9.56323769 [kJ/mol]
      Elst10,r                     -3.97299116 [mEh]      -2.49308959 [kcal/mol]     -10.43108684 [kJ/mol]
      Elst12,r                      0.33054629 [mEh]       0.20742093 [kcal/mol]       0.86784916 [kJ/mol]

    Exchange                        0.31720218 [mEh]       0.19904737 [kcal/mol]       0.83281420 [kJ/mol]
      Exch10                        0.22994676 [mEh]       0.14429377 [kcal/mol]       0.60372514 [kJ/mol]
      Exch10(S^2)                   0.22990174 [mEh]       0.14426552 [kcal/mol]       0.60360693 [kJ/mol]
      Exch11(S^2)                  -0.00492587 [mEh]      -0.00309103 [kcal/mol]      -0.01293288 [kJ/mol]
      Exch12(S^2)                   0.09218129 [mEh]       0.05784463 [kcal/mol]       0.24202193 [kJ/mol]

    Induction                      -0.35210178 [mEh]      -0.22094720 [kcal/mol]      -0.92444309 [kJ/mol]
      Ind20,r                      -0.32796127 [mEh]      -0.20579881 [kcal/mol]      -0.86106220 [kJ/mol]
      Ind22                        -0.01867428 [mEh]      -0.01171829 [kcal/mol]      -0.04902932 [kJ/mol]
      Exch-Ind20,r                  0.03247415 [mEh]       0.02037783 [kcal/mol]       0.08526086 [kJ/mol]
      Exch-Ind22                    0.00184909 [mEh]       0.00116032 [kcal/mol]       0.00485480 [kJ/mol]
      delta HF,r (2)               -0.03978946 [mEh]      -0.02496827 [kcal/mol]      -0.10446722 [kJ/mol]

    Dispersion                     -0.77709207 [mEh]      -0.48763263 [kcal/mol]      -2.04025494 [kJ/mol]
      Disp20                       -0.69442640 [mEh]      -0.43575915 [kcal/mol]      -1.82321626 [kJ/mol]
      Disp21                        0.05323002 [mEh]       0.03340234 [kcal/mol]       0.13975541 [kJ/mol]
      Disp22 (SDQ)                 -0.02786486 [mEh]      -0.01748547 [kcal/mol]      -0.07315919 [kJ/mol]
      Disp22 (T)                   -0.12154333 [mEh]      -0.07626959 [kcal/mol]      -0.31911198 [kJ/mol]
      Est. Disp22 (T)              -0.13001925 [mEh]      -0.08158831 [kcal/mol]      -0.34136548 [kJ/mol]
      Exch-Disp20                   0.02198842 [mEh]       0.01379794 [kcal/mol]       0.05773059 [kJ/mol]

  Total HF                         -4.07832098 [mEh]      -2.55918505 [kcal/mol]     -10.70763027 [kJ/mol]
  Total SAPT0                      -4.75075896 [mEh]      -2.98114626 [kcal/mol]     -12.47311594 [kJ/mol]
  Total SAPT2                      -4.34978245 [mEh]      -2.72952970 [kcal/mol]     -11.42035225 [kJ/mol]
  Total SAPT2+                     -4.45443654 [mEh]      -2.79520113 [kcal/mol]     -11.69512152 [kJ/mol]

  Special recipe for scaled SAPT0 (see Manual):
    Electrostatics sSAPT0          -3.97299116 [mEh]      -2.49308959 [kcal/mol]     -10.43108684 [kJ/mol]
    Exchange sSAPT0                 0.22994676 [mEh]       0.14429377 [kcal/mol]       0.60372514 [kJ/mol]
    Induction sSAPT0               -0.33525751 [mEh]      -0.21037726 [kcal/mol]      -0.88021846 [kJ/mol]
    Dispersion sSAPT0              -0.67242506 [mEh]      -0.42195310 [kcal/mol]      -1.76545175 [kJ/mol]
  Total sSAPT0                     -4.75072696 [mEh]      -2.98112617 [kcal/mol]     -12.47303191 [kJ/mol]
  --------------------------------------------------------------------------------------------------------

*** Psi4 exiting successfully. Buy a developer a beer!
