                               Psi4 1.4a2.dev224

  ==> Input File <==

--------------------------------------------------------------------------
#Generated by lconvert.py for sapt job

memory 20 GB

molecule  {
0 1
  C      -3.555220   -0.145050    0.625060
  C      -3.185550    1.196340    0.554090
  C      -1.965330    1.566370   -0.005380
  C      -1.113310    0.577740   -0.495980
  C      -1.473890   -0.763770   -0.429410
  C      -2.697760   -1.131260    0.132030
  O      -3.000300   -2.456700    0.171870
  H      -4.503840   -0.431940    1.060060
  H      -3.857480    1.951680    0.939040
  H      -1.682140    2.607900   -0.058620
  H      -0.162200    0.849850   -0.933370
  H      -0.822580   -1.539990   -0.806080
  H      -3.872060   -2.569580    0.583710
--
0 1
  O      -7.086060   -3.350500    2.072940
  H      -7.748020   -3.765820    1.515370
  H      -7.090540   -3.875000    2.876960
units angstrom
no_reorient
symmetry c1
}

set {
scf_type DF
basis aug-cc-pvdz
freeze_core True
guess SAD
}
energy('sapt2+')
--------------------------------------------------------------------------

  //              Dimer HF             //
    Molecular point group: c1
  Charge       = 0
  Multiplicity = 1
  Basis Set: AUG-CC-PVDZ
    Blend: AUG-CC-PVDZ
  Basis Set: (AUG-CC-PVDZ AUX)
    Blend: AUG-CC-PVDZ-JKFIT
  @DF-RHF Final Energy:  -381.64478061907829
    Total Energy =                       -381.6447806190782899
  //            Monomer A HF           //
    Molecular point group: c1
  Multiplicity = 1
  Basis Set: AUG-CC-PVDZ
    Blend: AUG-CC-PVDZ
  Basis Set: (AUG-CC-PVDZ AUX)
    Blend: AUG-CC-PVDZ-JKFIT
  @DF-RHF Final Energy:  -305.60090373135245
    Total Energy =                       -305.6009037313524459
  //            Monomer B HF           //
    Molecular point group: c1

    Geometry (in Angstrom), charge = 0, multiplicity = 1:

       Center              X                  Y                   Z               Mass
    ------------   -----------------  -----------------  -----------------  -----------------
      Gh(C)          -0.349624582099     0.605555111528     0.217321897115    12.000000000000
      Gh(C)           0.020045417901     1.946945111528     0.146351897115    12.000000000000
      Gh(C)           1.240265417901     2.316975111528    -0.413118102885    12.000000000000
      Gh(C)           2.092285417901     1.328345111528    -0.903718102885    12.000000000000
      Gh(C)           1.731705417901    -0.013164888472    -0.837148102885    12.000000000000
      Gh(C)           0.507835417901    -0.380654888472    -0.275708102885    12.000000000000
      Gh(O)           0.205295417901    -1.706094888472    -0.235868102885    15.994914619570
      Gh(H)          -1.298244582099     0.318665111528     0.652321897115     1.007825032230
      Gh(H)          -0.651884582099     2.702285111528     0.531301897115     1.007825032230
      Gh(H)           1.523455417901     3.358505111528    -0.466358102885     1.007825032230
      Gh(H)           3.043395417901     1.600455111528    -1.341108102885     1.007825032230
      Gh(H)           2.383015417901    -0.789384888472    -1.213818102885     1.007825032230
      Gh(H)          -0.666464582099    -1.818974888472     0.175971897115     1.007825032230
         O           -3.880464582099    -2.599894888472     1.665201897115    15.994914619570
         H           -4.542424582099    -3.015214888472     1.107631897115     1.007825032230
         H           -3.884944582099    -3.124394888472     2.469221897115     1.007825032230

  Charge       = 0
  Multiplicity = 1
  Basis Set: AUG-CC-PVDZ
    Blend: AUG-CC-PVDZ
  Basis Set: (AUG-CC-PVDZ AUX)
    Blend: AUG-CC-PVDZ-JKFIT

    Orbital Energies [Eh]
    ---------------------

    Doubly Occupied:

       1A    -20.577861     2A     -1.355415     3A     -0.717381
       4A     -0.585571     5A     -0.509273

  @DF-RHF Final Energy:   -76.04130233568227

   => Energetics <=

    Nuclear Repulsion Energy =              9.1688480575843947
    One-Electron Energy =                -122.9292961826596979
    Two-Electron Energy =                  37.7191457893930249
    Total Energy =                        -76.0413023356822748

  Dipole Moment: [D]
     X:    -1.1341      Y:    -1.6006      Z:     0.4193     Total:     2.0059

    SAPT Results
  --------------------------------------------------------------------------------------------------------
    Electrostatics                 -2.24098915 [mEh]      -1.40624192 [kcal/mol]      -5.88371619 [kJ/mol]
      Elst10,r                     -2.47070412 [mEh]      -1.55039024 [kcal/mol]      -6.48683278 [kJ/mol]
      Elst12,r                      0.22971497 [mEh]       0.14414832 [kcal/mol]       0.60311658 [kJ/mol]

    Exchange                        0.04464940 [mEh]       0.02801792 [kcal/mol]       0.11722698 [kJ/mol]
      Exch10                        0.03040083 [mEh]       0.01907681 [kcal/mol]       0.07981738 [kJ/mol]
      Exch10(S^2)                   0.03039986 [mEh]       0.01907620 [kcal/mol]       0.07981482 [kJ/mol]
      Exch11(S^2)                  -0.00110880 [mEh]      -0.00069578 [kcal/mol]      -0.00291116 [kJ/mol]
      Exch12(S^2)                   0.01535736 [mEh]       0.00963689 [kcal/mol]       0.04032075 [kJ/mol]

    Induction                      -0.13515945 [mEh]      -0.08481384 [kcal/mol]      -0.35486109 [kJ/mol]
      Ind20,r                      -0.12988498 [mEh]      -0.08150405 [kcal/mol]      -0.34101296 [kJ/mol]
      Ind22                        -0.00093670 [mEh]      -0.00058779 [kcal/mol]      -0.00245931 [kJ/mol]
      Exch-Ind20,r                  0.00360593 [mEh]       0.00226276 [kcal/mol]       0.00946738 [kJ/mol]
      Exch-Ind22                    0.00002601 [mEh]       0.00001632 [kcal/mol]       0.00006828 [kJ/mol]
      delta HF,r (2)               -0.00796971 [mEh]      -0.00500107 [kcal/mol]      -0.02092448 [kJ/mol]

    Dispersion                     -0.34736096 [mEh]      -0.21797229 [kcal/mol]      -0.91199608 [kJ/mol]
      Disp20                       -0.31287391 [mEh]      -0.19633134 [kcal/mol]      -0.82145034 [kJ/mol]
      Disp21                        0.03198351 [mEh]       0.02006995 [kcal/mol]       0.08397269 [kJ/mol]
      Disp22 (SDQ)                 -0.01025663 [mEh]      -0.00643613 [kcal/mol]      -0.02692879 [kJ/mol]
      Disp22 (T)                   -0.05762265 [mEh]      -0.03615876 [kcal/mol]      -0.15128825 [kJ/mol]
      Est. Disp22 (T)              -0.05975354 [mEh]      -0.03749592 [kcal/mol]      -0.15688291 [kJ/mol]
      Exch-Disp20                   0.00353962 [mEh]       0.00222115 [kcal/mol]       0.00929328 [kJ/mol]

  Total HF                         -2.57455204 [mEh]      -1.61555580 [kcal/mol]      -6.75948546 [kJ/mol]
  Total SAPT0                      -2.88388633 [mEh]      -1.80966599 [kcal/mol]      -7.57164252 [kJ/mol]
  Total SAPT2                      -2.64083349 [mEh]      -1.65714803 [kcal/mol]      -6.93350737 [kJ/mol]
  Total SAPT2+                     -2.67886016 [mEh]      -1.68101013 [kcal/mol]      -7.03334639 [kJ/mol]

  Special recipe for scaled SAPT0 (see Manual):
    Electrostatics sSAPT0          -2.47070412 [mEh]      -1.55039024 [kcal/mol]      -6.48683278 [kJ/mol]
    Exchange sSAPT0                 0.03040083 [mEh]       0.01907681 [kcal/mol]       0.07981738 [kJ/mol]
    Induction sSAPT0               -0.13424841 [mEh]      -0.08424215 [kcal/mol]      -0.35246915 [kJ/mol]
    Dispersion sSAPT0              -0.30933395 [mEh]      -0.19410998 [kcal/mol]      -0.81215617 [kJ/mol]
  Total sSAPT0                     -2.88388564 [mEh]      -1.80966556 [kcal/mol]      -7.57164071 [kJ/mol]
  --------------------------------------------------------------------------------------------------------

*** Psi4 exiting successfully. Buy a developer a beer!
