                               Psi4 1.4a2.dev224

  ==> Input File <==

--------------------------------------------------------------------------
#Generated by lconvert.py for sapt job

memory 20 GB

molecule  {
0 1
  C      -3.555220   -0.145050    0.625060
  C      -3.185550    1.196340    0.554090
  C      -1.965330    1.566370   -0.005380
  C      -1.113310    0.577740   -0.495980
  C      -1.473890   -0.763770   -0.429410
  C      -2.697760   -1.131260    0.132030
  O      -3.000300   -2.456700    0.171870
  H      -4.503840   -0.431940    1.060060
  H      -3.857480    1.951680    0.939040
  H      -1.682140    2.607900   -0.058620
  H      -0.162200    0.849850   -0.933370
  H      -0.822580   -1.539990   -0.806080
  H      -3.872060   -2.569580    0.583710
--
0 1
  O      -6.071110   -3.103900    1.602660
  H      -6.733070   -3.519210    1.045080
  H      -6.075590   -3.628390    2.406680
units angstrom
no_reorient
symmetry c1
}

set {
scf_type DF
basis aug-cc-pvdz
freeze_core True
guess SAD
}
energy('sapt2+')
--------------------------------------------------------------------------

  //              Dimer HF             //
    Molecular point group: c1
  Charge       = 0
  Multiplicity = 1
  Basis Set: AUG-CC-PVDZ
    Blend: AUG-CC-PVDZ
  Basis Set: (AUG-CC-PVDZ AUX)
    Blend: AUG-CC-PVDZ-JKFIT
  @DF-RHF Final Energy:  -381.64896160374451
    Total Energy =                       -381.6489616037445103
  //            Monomer A HF           //
    Molecular point group: c1
  Multiplicity = 1
  Basis Set: AUG-CC-PVDZ
    Blend: AUG-CC-PVDZ
  Basis Set: (AUG-CC-PVDZ AUX)
    Blend: AUG-CC-PVDZ-JKFIT
  @DF-RHF Final Energy:  -305.60097974747600
    Total Energy =                       -305.6009797474760035
  //            Monomer B HF           //
    Molecular point group: c1

    Geometry (in Angstrom), charge = 0, multiplicity = 1:

       Center              X                  Y                   Z               Mass
    ------------   -----------------  -----------------  -----------------  -----------------
      Gh(C)          -0.512760916653     0.565918082438     0.292911676613    12.000000000000
      Gh(C)          -0.143090916653     1.907308082438     0.221941676613    12.000000000000
      Gh(C)           1.077129083347     2.277338082438    -0.337528323387    12.000000000000
      Gh(C)           1.929149083347     1.288708082438    -0.828128323387    12.000000000000
      Gh(C)           1.568569083347    -0.052801917562    -0.761558323387    12.000000000000
      Gh(C)           0.344699083347    -0.420291917562    -0.200118323387    12.000000000000
      Gh(O)           0.042159083347    -1.745731917562    -0.160278323387    15.994914619570
      Gh(H)          -1.461380916653     0.279028082438     0.727911676613     1.007825032230
      Gh(H)          -0.815020916653     2.662648082438     0.606891676613     1.007825032230
      Gh(H)           1.360319083347     3.318868082438    -0.390768323387     1.007825032230
      Gh(H)           2.880259083347     1.560818082438    -1.265518323387     1.007825032230
      Gh(H)           2.219879083347    -0.829021917562    -1.138228323387     1.007825032230
      Gh(H)          -0.829600916653    -1.858611917562     0.251561676613     1.007825032230
         O           -3.028650916653    -2.392931917562     1.270511676613    15.994914619570
         H           -3.690610916653    -2.808241917562     0.712931676613     1.007825032230
         H           -3.033130916653    -2.917421917562     2.074531676613     1.007825032230

  Charge       = 0
  Multiplicity = 1
  Basis Set: AUG-CC-PVDZ
    Blend: AUG-CC-PVDZ
  Basis Set: (AUG-CC-PVDZ AUX)
    Blend: AUG-CC-PVDZ-JKFIT

    Orbital Energies [Eh]
    ---------------------

    Doubly Occupied:

       1A    -20.577880     2A     -1.355369     3A     -0.717269
       4A     -0.585448     5A     -0.509210

  @DF-RHF Final Energy:   -76.04150150305443

   => Energetics <=

    Nuclear Repulsion Energy =              9.1688642803206406
    One-Electron Energy =                -122.9303766167094523
    Two-Electron Energy =                  37.7200108333343920
    Total Energy =                        -76.0415015030544339

  Dipole Moment: [D]
     X:    -1.1309      Y:    -1.5968      Z:     0.4180     Total:     2.0009

    SAPT Results
  --------------------------------------------------------------------------------------------------------
    Electrostatics                 -6.72360339 [mEh]      -4.21912483 [kcal/mol]     -17.65281827 [kJ/mol]
      Elst10,r                     -7.13988606 [mEh]      -4.48034614 [kcal/mol]     -18.74576826 [kJ/mol]
      Elst12,r                      0.41628267 [mEh]       0.26122132 [kcal/mol]       1.09294999 [kJ/mol]

    Exchange                        2.23970460 [mEh]       1.40543586 [kcal/mol]       5.88034362 [kJ/mol]
      Exch10                        1.73167987 [mEh]       1.08664552 [kcal/mol]       4.54652487 [kJ/mol]
      Exch10(S^2)                   1.72958672 [mEh]       1.08533205 [kcal/mol]       4.54102930 [kJ/mol]
      Exch11(S^2)                  -0.01701481 [mEh]      -0.01067695 [kcal/mol]      -0.04467237 [kJ/mol]
      Exch12(S^2)                   0.52503954 [mEh]       0.32946728 [kcal/mol]       1.37849111 [kJ/mol]

    Induction                      -1.17616181 [mEh]      -0.73805268 [kcal/mol]      -3.08801241 [kJ/mol]
      Ind20,r                      -1.11778980 [mEh]      -0.70142369 [kcal/mol]      -2.93475672 [kJ/mol]
      Ind22                        -0.14221341 [mEh]      -0.08924026 [kcal/mol]      -0.37338126 [kJ/mol]
      Exch-Ind20,r                  0.30023916 [mEh]       0.18840292 [kcal/mol]       0.78827781 [kJ/mol]
      Exch-Ind22                    0.03819863 [mEh]       0.02397000 [kcal/mol]       0.10029048 [kJ/mol]
      delta HF,r (2)               -0.25459639 [mEh]      -0.15976164 [kcal/mol]      -0.66844272 [kJ/mol]

    Dispersion                     -1.90950682 [mEh]      -1.19823362 [kcal/mol]      -5.01340946 [kJ/mol]
      Disp20                       -1.74850985 [mEh]      -1.09720650 [kcal/mol]      -4.59071199 [kJ/mol]
      Disp21                        0.10292349 [mEh]       0.06458546 [kcal/mol]       0.27022557 [kJ/mol]
      Disp22 (SDQ)                 -0.07979682 [mEh]      -0.05007326 [kcal/mol]      -0.20950652 [kJ/mol]
      Disp22 (T)                   -0.29251154 [mEh]      -0.18355376 [kcal/mol]      -0.76798895 [kJ/mol]
      Est. Disp22 (T)              -0.31988013 [mEh]      -0.20072781 [kcal/mol]      -0.83984516 [kJ/mol]
      Exch-Disp20                   0.13575650 [mEh]       0.08518849 [kcal/mol]       0.35642864 [kJ/mol]

  Total HF                         -6.48035321 [mEh]      -4.06648304 [kcal/mol]     -17.01416502 [kJ/mol]
  Total SAPT0                      -8.09310657 [mEh]      -5.07850104 [kcal/mol]     -21.24844837 [kJ/mol]
  Total SAPT2                      -7.27281395 [mEh]      -4.56375966 [kcal/mol]     -19.09477040 [kJ/mol]
  Total SAPT2+                     -7.56956742 [mEh]      -4.74997527 [kcal/mol]     -19.87389651 [kJ/mol]

  Special recipe for scaled SAPT0 (see Manual):
    Electrostatics sSAPT0          -7.13988606 [mEh]      -4.48034614 [kcal/mol]     -18.74576826 [kJ/mol]
    Exchange sSAPT0                 1.73167987 [mEh]       1.08664552 [kcal/mol]       4.54652487 [kJ/mol]
    Induction sSAPT0               -1.07105565 [mEh]      -0.67209757 [kcal/mol]      -2.81205623 [kJ/mol]
    Dispersion sSAPT0              -1.61225988 [mEh]      -1.01170835 [kcal/mol]      -4.23298773 [kJ/mol]
  Total sSAPT0                     -8.09152172 [mEh]      -5.07750654 [kcal/mol]     -21.24428735 [kJ/mol]
  --------------------------------------------------------------------------------------------------------

*** Psi4 exiting successfully. Buy a developer a beer!
