                               Psi4 1.4a2.dev224

  ==> Input File <==

--------------------------------------------------------------------------
#Generated by lconvert.py for sapt job

memory 20 GB

molecule  {
0 1
  N      -2.633040   -1.751090   -0.900110
  C      -2.257810    1.403210    0.733620
  C      -3.533170    1.939620    0.673290
  C      -4.594200    1.239410    0.063730
  C      -4.399330   -0.012760   -0.497990
  C      -3.111740   -0.553790   -0.436830
  C      -2.026320    0.135280    0.173450
  C      -0.882740   -0.707950    0.050800
  C      -1.295590   -1.844200   -0.607820
  H      -1.452020    1.951350    1.204540
  H      -3.723670    2.914690    1.100930
  H      -5.577990    1.687930    0.034150
  H      -5.213370   -0.550690   -0.966000
  H       0.116630   -0.510730    0.399380
  H      -3.177610   -2.454190   -1.380700
  H      -0.735090   -2.718720   -0.892970
--
0 1
  O      -5.251790   -5.045210   -3.168920
  H      -5.803590   -5.723820   -2.774470
  H      -5.468070   -5.075310   -4.103200
units angstrom
no_reorient
symmetry c1
}

set {
scf_type DF
basis aug-cc-pvdz
freeze_core True
guess SAD
}
energy('sapt2+')
--------------------------------------------------------------------------

  //              Dimer HF             //
    Molecular point group: c1
  Charge       = 0
  Multiplicity = 1
  Basis Set: AUG-CC-PVDZ
    Blend: AUG-CC-PVDZ
  Basis Set: (AUG-CC-PVDZ AUX)
    Blend: AUG-CC-PVDZ-JKFIT
  @DF-RHF Final Energy:  -437.55338040769442
    Total Energy =                       -437.5533804076944762
  //            Monomer A HF           //
    Molecular point group: c1
  Multiplicity = 1
  Basis Set: AUG-CC-PVDZ
    Blend: AUG-CC-PVDZ
  Basis Set: (AUG-CC-PVDZ AUX)
    Blend: AUG-CC-PVDZ-JKFIT
  @DF-RHF Final Energy:  -361.50974756520543
    Total Energy =                       -361.5097475652054300
  //            Monomer B HF           //
    Molecular point group: c1

    Geometry (in Angstrom), charge = 0, multiplicity = 1:

       Center              X                  Y                   Z               Mass
    ------------   -----------------  -----------------  -----------------  -----------------
      Gh(N)           0.456957155411    -1.035941316499    -0.389998231230    14.003074004430
      Gh(C)           0.832187155411     2.118358683501     1.243731768770    12.000000000000
      Gh(C)          -0.443172844589     2.654768683501     1.183401768770    12.000000000000
      Gh(C)          -1.504202844589     1.954558683501     0.573841768770    12.000000000000
      Gh(C)          -1.309332844589     0.702388683501     0.012121768770    12.000000000000
      Gh(C)          -0.021742844589     0.161358683501     0.073281768770    12.000000000000
      Gh(C)           1.063677155411     0.850428683501     0.683561768770    12.000000000000
      Gh(C)           2.207257155411     0.007198683501     0.560911768770    12.000000000000
      Gh(C)           1.794407155411    -1.129051316499    -0.097708231230    12.000000000000
      Gh(H)           1.637977155411     2.666498683501     1.714651768770     1.007825032230
      Gh(H)          -0.633672844589     3.629838683501     1.611041768770     1.007825032230
      Gh(H)          -2.487992844589     2.403078683501     0.544261768770     1.007825032230
      Gh(H)          -2.123372844589     0.164458683501    -0.455888231230     1.007825032230
      Gh(H)           3.206627155411     0.204418683501     0.909491768770     1.007825032230
      Gh(H)          -0.087612844589    -1.739041316499    -0.870588231230     1.007825032230
      Gh(H)           2.354907155411    -2.003571316499    -0.382858231230     1.007825032230
         O           -2.161792844589    -4.330061316499    -2.658808231230    15.994914619570
         H           -2.713592844589    -5.008671316499    -2.264358231230     1.007825032230
         H           -2.378072844589    -4.360161316499    -3.593088231230     1.007825032230

  Charge       = 0
  Multiplicity = 1
  Basis Set: AUG-CC-PVDZ
    Blend: AUG-CC-PVDZ
  Basis Set: (AUG-CC-PVDZ AUX)
    Blend: AUG-CC-PVDZ-JKFIT

    Orbital Energies [Eh]
    ---------------------

    Doubly Occupied:

       1A    -20.577720     2A     -1.355622     3A     -0.717858
       4A     -0.585478     5A     -0.509298

  @DF-RHF Final Energy:   -76.04134063665921

   => Energetics <=

    Nuclear Repulsion Energy =              9.1735648937267040
    One-Electron Energy =                -122.9378572523040418
    Two-Electron Energy =                  37.7229517219181218
    Total Energy =                        -76.0413406366592142

  Dipole Moment: [D]
     X:    -1.3097      Y:    -1.2065      Z:    -0.9195     Total:     2.0041

    SAPT Results
  --------------------------------------------------------------------------------------------------------
    Electrostatics                 -2.05912186 [mEh]      -1.29211848 [kcal/mol]      -5.40622370 [kJ/mol]
      Elst10,r                     -2.19937514 [mEh]      -1.38012873 [kcal/mol]      -5.77445862 [kJ/mol]
      Elst12,r                      0.14025327 [mEh]       0.08801026 [kcal/mol]       0.36823492 [kJ/mol]

    Exchange                        0.01578283 [mEh]       0.00990388 [kcal/mol]       0.04143782 [kJ/mol]
      Exch10                        0.01082244 [mEh]       0.00679118 [kcal/mol]       0.02841430 [kJ/mol]
      Exch10(S^2)                   0.01082229 [mEh]       0.00679109 [kcal/mol]       0.02841393 [kJ/mol]
      Exch11(S^2)                  -0.00072842 [mEh]      -0.00045709 [kcal/mol]      -0.00191247 [kJ/mol]
      Exch12(S^2)                   0.00568882 [mEh]       0.00356979 [kcal/mol]       0.01493599 [kJ/mol]

    Induction                      -0.10381134 [mEh]      -0.06514260 [kcal/mol]      -0.27255664 [kJ/mol]
      Ind20,r                      -0.09811202 [mEh]      -0.06156622 [kcal/mol]      -0.25759307 [kJ/mol]
      Ind22                        -0.00015994 [mEh]      -0.00010037 [kcal/mol]      -0.00041993 [kJ/mol]
      Exch-Ind20,r                  0.00106050 [mEh]       0.00066547 [kcal/mol]       0.00278433 [kJ/mol]
      Exch-Ind22                    0.00000173 [mEh]       0.00000108 [kcal/mol]       0.00000454 [kJ/mol]
      delta HF,r (2)               -0.00660161 [mEh]      -0.00414257 [kcal/mol]      -0.01733252 [kJ/mol]

    Dispersion                     -0.25318879 [mEh]      -0.15887836 [kcal/mol]      -0.66474707 [kJ/mol]
      Disp20                       -0.23649176 [mEh]      -0.14840082 [kcal/mol]      -0.62090902 [kJ/mol]
      Disp21                        0.03588237 [mEh]       0.02251653 [kcal/mol]       0.09420915 [kJ/mol]
      Disp22 (SDQ)                 -0.00748080 [mEh]      -0.00469427 [kcal/mol]      -0.01964084 [kJ/mol]
      Disp22 (T)                   -0.04496070 [mEh]      -0.02821326 [kcal/mol]      -0.11804429 [kJ/mol]
      Est. Disp22 (T)              -0.04640096 [mEh]      -0.02911704 [kcal/mol]      -0.12182570 [kJ/mol]
      Exch-Disp20                   0.00130236 [mEh]       0.00081724 [kcal/mol]       0.00341933 [kJ/mol]

  Total HF                         -2.29220583 [mEh]      -1.43838087 [kcal/mol]      -6.01818558 [kJ/mol]
  Total SAPT0                      -2.52739523 [mEh]      -1.58596445 [kcal/mol]      -6.63567527 [kJ/mol]
  Total SAPT2                      -2.38233978 [mEh]      -1.49494078 [kcal/mol]      -6.25483222 [kJ/mol]
  Total SAPT2+                     -2.40033916 [mEh]      -1.50623556 [kcal/mol]      -6.30208960 [kJ/mol]

  Special recipe for scaled SAPT0 (see Manual):
    Electrostatics sSAPT0          -2.19937514 [mEh]      -1.38012873 [kcal/mol]      -5.77445862 [kJ/mol]
    Exchange sSAPT0                 0.01082244 [mEh]       0.00679118 [kcal/mol]       0.02841430 [kJ/mol]
    Induction sSAPT0               -0.10365309 [mEh]      -0.06504329 [kcal/mol]      -0.27214114 [kJ/mol]
    Dispersion sSAPT0              -0.23518935 [mEh]      -0.14758355 [kcal/mol]      -0.61748956 [kJ/mol]
  Total sSAPT0                     -2.52739514 [mEh]      -1.58596439 [kcal/mol]      -6.63567502 [kJ/mol]
  --------------------------------------------------------------------------------------------------------

*** Psi4 exiting successfully. Buy a developer a beer!
