                               Psi4 1.4a2.dev224

  ==> Input File <==

--------------------------------------------------------------------------
#Generated by lconvert.py for sapt job

memory 20 GB

molecule  {
0 1
  N      -2.633040   -1.751090   -0.900110
  C      -2.257810    1.403210    0.733620
  C      -3.533170    1.939620    0.673290
  C      -4.594200    1.239410    0.063730
  C      -4.399330   -0.012760   -0.497990
  C      -3.111740   -0.553790   -0.436830
  C      -2.026320    0.135280    0.173450
  C      -0.882740   -0.707950    0.050800
  C      -1.295590   -1.844200   -0.607820
  H      -1.452020    1.951350    1.204540
  H      -3.723670    2.914690    1.100930
  H      -5.577990    1.687930    0.034150
  H      -5.213370   -0.550690   -0.966000
  H       0.116630   -0.510730    0.399380
  H      -3.177610   -2.454190   -1.380700
  H      -0.735090   -2.718720   -0.892970
--
0 1
  O      -4.596790   -4.226990   -2.604220
  H      -5.148590   -4.905600   -2.209780
  H      -4.813060   -4.257090   -3.538510
units angstrom
no_reorient
symmetry c1
}

set {
scf_type DF
basis aug-cc-pvdz
freeze_core True
guess SAD
}
energy('sapt2+')
--------------------------------------------------------------------------

  //              Dimer HF             //
    Molecular point group: c1
  Charge       = 0
  Multiplicity = 1
  Basis Set: AUG-CC-PVDZ
    Blend: AUG-CC-PVDZ
  Basis Set: (AUG-CC-PVDZ AUX)
    Blend: AUG-CC-PVDZ-JKFIT
  @DF-RHF Final Energy:  -437.55678253791200
    Total Energy =                       -437.5567825379119995
  //            Monomer A HF           //
    Molecular point group: c1
  Multiplicity = 1
  Basis Set: AUG-CC-PVDZ
    Blend: AUG-CC-PVDZ
  Basis Set: (AUG-CC-PVDZ AUX)
    Blend: AUG-CC-PVDZ-JKFIT
  @DF-RHF Final Energy:  -361.50981442920119
    Total Energy =                       -361.5098144292012421
  //            Monomer B HF           //
    Molecular point group: c1

    Geometry (in Angstrom), charge = 0, multiplicity = 1:

       Center              X                  Y                   Z               Mass
    ------------   -----------------  -----------------  -----------------  -----------------
      Gh(N)           0.369616750615    -1.145046056895    -0.465297447574    14.003074004430
      Gh(C)           0.744846750615     2.009253943105     1.168432552426    12.000000000000
      Gh(C)          -0.530513249385     2.545663943105     1.108102552426    12.000000000000
      Gh(C)          -1.591543249385     1.845453943105     0.498542552426    12.000000000000
      Gh(C)          -1.396673249385     0.593283943105    -0.063177447574    12.000000000000
      Gh(C)          -0.109083249385     0.052253943105    -0.002017447574    12.000000000000
      Gh(C)           0.976336750615     0.741323943105     0.608262552426    12.000000000000
      Gh(C)           2.119916750615    -0.101906056895     0.485612552426    12.000000000000
      Gh(C)           1.707066750615    -1.238156056895    -0.173007447574    12.000000000000
      Gh(H)           1.550636750615     2.557393943105     1.639352552426     1.007825032230
      Gh(H)          -0.721013249385     3.520733943105     1.535742552426     1.007825032230
      Gh(H)          -2.575333249385     2.293973943105     0.468962552426     1.007825032230
      Gh(H)          -2.210713249385     0.055353943105    -0.531187447574     1.007825032230
      Gh(H)           3.119286750615     0.095313943105     0.834192552426     1.007825032230
      Gh(H)          -0.174953249385    -1.848146056895    -0.945887447574     1.007825032230
      Gh(H)           2.267566750615    -2.112676056895    -0.458157447574     1.007825032230
         O           -1.594133249385    -3.620946056895    -2.169407447574    15.994914619570
         H           -2.145933249385    -4.299556056895    -1.774967447574     1.007825032230
         H           -1.810403249385    -3.651046056895    -3.103697447574     1.007825032230

  Charge       = 0
  Multiplicity = 1
  Basis Set: AUG-CC-PVDZ
    Blend: AUG-CC-PVDZ
  Basis Set: (AUG-CC-PVDZ AUX)
    Blend: AUG-CC-PVDZ-JKFIT

    Orbital Energies [Eh]
    ---------------------

    Doubly Occupied:

       1A    -20.577713     2A     -1.355612     3A     -0.717832
       4A     -0.585424     5A     -0.509219

  @DF-RHF Final Energy:   -76.04146970543437

   => Energetics <=

    Nuclear Repulsion Energy =              9.1735488754536139
    One-Electron Energy =                -122.9384369720638972
    Two-Electron Energy =                  37.7234183911758976
    Total Energy =                        -76.0414697054343804

  Dipole Moment: [D]
     X:    -1.3076      Y:    -1.2054      Z:    -0.9185     Total:     2.0016

    SAPT Results
  --------------------------------------------------------------------------------------------------------
    Electrostatics                 -5.51661328 [mEh]      -3.46172710 [kcal/mol]     -14.48386618 [kJ/mol]
      Elst10,r                     -5.78207330 [mEh]      -3.62830577 [kcal/mol]     -15.18083135 [kJ/mol]
      Elst12,r                      0.26546001 [mEh]       0.16657867 [kcal/mol]       0.69696517 [kJ/mol]

    Exchange                        1.29448838 [mEh]       0.81230372 [kcal/mol]       3.39867878 [kJ/mol]
      Exch10                        1.02813761 [mEh]       0.64516609 [kcal/mol]       2.69937492 [kJ/mol]
      Exch10(S^2)                   1.02725198 [mEh]       0.64461035 [kcal/mol]       2.69704970 [kJ/mol]
      Exch11(S^2)                  -0.02851081 [mEh]      -0.01789080 [kcal/mol]      -0.07485513 [kJ/mol]
      Exch12(S^2)                   0.29486158 [mEh]       0.18502844 [kcal/mol]       0.77415898 [kJ/mol]

    Induction                      -0.80021605 [mEh]      -0.50214315 [kcal/mol]      -2.10096695 [kJ/mol]
      Ind20,r                      -0.72583924 [mEh]      -0.45547100 [kcal/mol]      -1.90569067 [kJ/mol]
      Ind22                        -0.06910788 [mEh]      -0.04336585 [kcal/mol]      -0.18144271 [kJ/mol]
      Exch-Ind20,r                  0.14031386 [mEh]       0.08804828 [kcal/mol]       0.36839399 [kJ/mol]
      Exch-Ind22                    0.01335942 [mEh]       0.00838316 [kcal/mol]       0.03507516 [kJ/mol]
      delta HF,r (2)               -0.15894221 [mEh]      -0.09973774 [kcal/mol]      -0.41730272 [kJ/mol]

    Dispersion                     -1.43150705 [mEh]      -0.89828423 [kcal/mol]      -3.75842123 [kJ/mol]
      Disp20                       -1.33674536 [mEh]      -0.83882038 [kcal/mol]      -3.50962447 [kJ/mol]
      Disp21                        0.11424682 [mEh]       0.07169096 [kcal/mol]       0.29995499 [kJ/mol]
      Disp22 (SDQ)                 -0.04175310 [mEh]      -0.02620046 [kcal/mol]      -0.10962274 [kJ/mol]
      Disp22 (T)                   -0.22943670 [mEh]      -0.14397370 [kcal/mol]      -0.60238597 [kJ/mol]
      Est. Disp22 (T)              -0.24735809 [mEh]      -0.15521954 [kcal/mol]      -0.64943856 [kJ/mol]
      Exch-Disp20                   0.08010268 [mEh]       0.05026519 [kcal/mol]       0.21030955 [kJ/mol]

  Total HF                         -5.49840328 [mEh]      -3.45030015 [kcal/mol]     -14.43605581 [kJ/mol]
  Total SAPT0                      -6.75504596 [mEh]      -4.23885534 [kcal/mol]     -17.73537073 [kJ/mol]
  Total SAPT2                      -6.27898364 [mEh]      -3.94012172 [kcal/mol]     -16.48546927 [kJ/mol]
  Total SAPT2+                     -6.45384800 [mEh]      -4.04985076 [kcal/mol]     -16.94457558 [kJ/mol]

  Special recipe for scaled SAPT0 (see Manual):
    Electrostatics sSAPT0          -5.78207330 [mEh]      -3.62830577 [kcal/mol]     -15.18083135 [kJ/mol]
    Exchange sSAPT0                 1.02813761 [mEh]       0.64516609 [kcal/mol]       2.69937492 [kJ/mol]
    Induction sSAPT0               -0.74410437 [mEh]      -0.46693254 [kcal/mol]      -1.95364575 [kJ/mol]
    Dispersion sSAPT0              -1.25643533 [mEh]      -0.78842507 [kcal/mol]      -3.29877050 [kJ/mol]
  Total sSAPT0                     -6.75447538 [mEh]      -4.23849729 [kcal/mol]     -17.73387267 [kJ/mol]
  --------------------------------------------------------------------------------------------------------

*** Psi4 exiting successfully. Buy a developer a beer!
