                               Psi4 1.4a2.dev224

  ==> Input File <==

--------------------------------------------------------------------------
#Generated by lconvert.py for sapt job

memory 20 GB

molecule  {
0 1
  N      -2.633040   -1.751090   -0.900110
  C      -2.257810    1.403210    0.733620
  C      -3.533170    1.939620    0.673290
  C      -4.594200    1.239410    0.063730
  C      -4.399330   -0.012760   -0.497990
  C      -3.111740   -0.553790   -0.436830
  C      -2.026320    0.135280    0.173450
  C      -0.882740   -0.707950    0.050800
  C      -1.295590   -1.844200   -0.607820
  H      -1.452020    1.951350    1.204540
  H      -3.723670    2.914690    1.100930
  H      -5.577990    1.687930    0.034150
  H      -5.213370   -0.550690   -0.966000
  H       0.116630   -0.510730    0.399380
  H      -3.177610   -2.454190   -1.380700
  H      -0.735090   -2.718720   -0.892970
--
0 1
  O      -4.924290   -4.636100   -2.886570
  H      -5.476090   -5.314710   -2.492130
  H      -5.140560   -4.666200   -3.820860
units angstrom
no_reorient
symmetry c1
}

set {
scf_type DF
basis aug-cc-pvdz
freeze_core True
guess SAD
}
energy('sapt2+')
--------------------------------------------------------------------------

  //              Dimer HF             //
    Molecular point group: c1
  Charge       = 0
  Multiplicity = 1
  Basis Set: AUG-CC-PVDZ
    Blend: AUG-CC-PVDZ
  Basis Set: (AUG-CC-PVDZ AUX)
    Blend: AUG-CC-PVDZ-JKFIT
  @DF-RHF Final Energy:  -437.55465829104941
    Total Energy =                       -437.5546582910494635
  //            Monomer A HF           //
    Molecular point group: c1
  Multiplicity = 1
  Basis Set: AUG-CC-PVDZ
    Blend: AUG-CC-PVDZ
  Basis Set: (AUG-CC-PVDZ AUX)
    Blend: AUG-CC-PVDZ-JKFIT
  @DF-RHF Final Energy:  -361.50976401571455
    Total Energy =                       -361.5097640157146088
  //            Monomer B HF           //
    Molecular point group: c1

    Geometry (in Angstrom), charge = 0, multiplicity = 1:

       Center              X                  Y                   Z               Mass
    ------------   -----------------  -----------------  -----------------  -----------------
      Gh(N)           0.413286915705    -1.090493686697    -0.427647764786    14.003074004430
      Gh(C)           0.788516915705     2.063806313303     1.206082235214    12.000000000000
      Gh(C)          -0.486843084295     2.600216313303     1.145752235214    12.000000000000
      Gh(C)          -1.547873084295     1.900006313303     0.536192235214    12.000000000000
      Gh(C)          -1.353003084295     0.647836313303    -0.025527764786    12.000000000000
      Gh(C)          -0.065413084295     0.106806313303     0.035632235214    12.000000000000
      Gh(C)           1.020006915705     0.795876313303     0.645912235214    12.000000000000
      Gh(C)           2.163586915705    -0.047353686697     0.523262235214    12.000000000000
      Gh(C)           1.750736915705    -1.183603686697    -0.135357764786    12.000000000000
      Gh(H)           1.594306915705     2.611946313303     1.677002235214     1.007825032230
      Gh(H)          -0.677343084295     3.575286313303     1.573392235214     1.007825032230
      Gh(H)          -2.531663084295     2.348526313303     0.506612235214     1.007825032230
      Gh(H)          -2.167043084295     0.109906313303    -0.493537764786     1.007825032230
      Gh(H)           3.162956915705     0.149866313303     0.871842235214     1.007825032230
      Gh(H)          -0.131283084295    -1.793593686697    -0.908237764786     1.007825032230
      Gh(H)           2.311236915705    -2.058123686697    -0.420507764786     1.007825032230
         O           -1.877963084295    -3.975503686697    -2.414107764786    15.994914619570
         H           -2.429763084295    -4.654113686697    -2.019667764786     1.007825032230
         H           -2.094233084295    -4.005603686697    -3.348397764786     1.007825032230

  Charge       = 0
  Multiplicity = 1
  Basis Set: AUG-CC-PVDZ
    Blend: AUG-CC-PVDZ
  Basis Set: (AUG-CC-PVDZ AUX)
    Blend: AUG-CC-PVDZ-JKFIT

    Orbital Energies [Eh]
    ---------------------

    Doubly Occupied:

       1A    -20.577731     2A     -1.355634     3A     -0.717868
       4A     -0.585473     5A     -0.509301

  @DF-RHF Final Energy:   -76.04136849284576

   => Energetics <=

    Nuclear Repulsion Energy =              9.1735488754536174
    One-Electron Energy =                -122.9378181544711310
    Two-Electron Energy =                  37.7229007861717491
    Total Energy =                        -76.0413684928457627

  Dipole Moment: [D]
     X:    -1.3097      Y:    -1.2071      Z:    -0.9199     Total:     2.0047

    SAPT Results
  --------------------------------------------------------------------------------------------------------
    Electrostatics                 -3.18597531 [mEh]      -1.99922969 [kcal/mol]      -8.36477703 [kJ/mol]
      Elst10,r                     -3.38931348 [mEh]      -2.12682632 [kcal/mol]      -8.89864130 [kJ/mol]
      Elst12,r                      0.20333816 [mEh]       0.12759662 [kcal/mol]       0.53386427 [kJ/mol]

    Exchange                        0.14464167 [mEh]       0.09076402 [kcal/mol]       0.37975666 [kJ/mol]
      Exch10                        0.10713908 [mEh]       0.06723079 [kcal/mol]       0.28129362 [kJ/mol]
      Exch10(S^2)                   0.10712760 [mEh]       0.06722358 [kcal/mol]       0.28126347 [kJ/mol]
      Exch11(S^2)                  -0.00496558 [mEh]      -0.00311595 [kcal/mol]      -0.01303714 [kJ/mol]
      Exch12(S^2)                   0.04246817 [mEh]       0.02664918 [kcal/mol]       0.11150018 [kJ/mol]

    Induction                      -0.25111509 [mEh]      -0.15757710 [kcal/mol]      -0.65930258 [kJ/mol]
      Ind20,r                      -0.23067443 [mEh]      -0.14475039 [kcal/mol]      -0.60563563 [kJ/mol]
      Ind22                        -0.00791569 [mEh]      -0.00496717 [kcal/mol]      -0.02078263 [kJ/mol]
      Exch-Ind20,r                  0.01190988 [mEh]       0.00747356 [kcal/mol]       0.03126938 [kJ/mol]
      Exch-Ind22                    0.00040869 [mEh]       0.00025646 [kcal/mol]       0.00107302 [kJ/mol]
      delta HF,r (2)               -0.02484354 [mEh]      -0.01558956 [kcal/mol]      -0.06522671 [kJ/mol]

    Dispersion                     -0.56419005 [mEh]      -0.35403460 [kcal/mol]      -1.48128078 [kJ/mol]
      Disp20                       -0.51939622 [mEh]      -0.32592605 [kcal/mol]      -1.36367459 [kJ/mol]
      Disp21                        0.06113428 [mEh]       0.03836234 [kcal/mol]       0.16050803 [kJ/mol]
      Disp22 (SDQ)                 -0.01661285 [mEh]      -0.01042472 [kcal/mol]      -0.04361702 [kJ/mol]
      Disp22 (T)                   -0.09492799 [mEh]      -0.05956822 [kcal/mol]      -0.24923342 [kJ/mol]
      Est. Disp22 (T)              -0.09960506 [mEh]      -0.06250312 [kcal/mol]      -0.26151304 [kJ/mol]
      Exch-Disp20                   0.01028979 [mEh]       0.00645694 [kcal/mol]       0.02701584 [kJ/mol]

  Total HF                         -3.52578249 [mEh]      -2.21246191 [kcal/mol]      -9.25694065 [kJ/mol]
  Total SAPT0                      -4.03488892 [mEh]      -2.53193102 [kcal/mol]     -10.59359940 [kJ/mol]
  Total SAPT2                      -3.80155516 [mEh]      -2.38551188 [kcal/mol]      -9.98098170 [kJ/mol]
  Total SAPT2+                     -3.85663878 [mEh]      -2.42007737 [kcal/mol]     -10.12560373 [kJ/mol]

  Special recipe for scaled SAPT0 (see Manual):
    Electrostatics sSAPT0          -3.38931348 [mEh]      -2.12682632 [kcal/mol]      -8.89864130 [kJ/mol]
    Exchange sSAPT0                 0.10713908 [mEh]       0.06723079 [kcal/mol]       0.28129362 [kJ/mol]
    Induction sSAPT0               -0.24360427 [mEh]      -0.15286398 [kcal/mol]      -0.63958291 [kJ/mol]
    Dispersion sSAPT0              -0.50910312 [mEh]      -0.31946703 [kcal/mol]      -1.33665006 [kJ/mol]
  Total sSAPT0                     -4.03488178 [mEh]      -2.53192654 [kcal/mol]     -10.59358066 [kJ/mol]
  --------------------------------------------------------------------------------------------------------

*** Psi4 exiting successfully. Buy a developer a beer!
