                               Psi4 1.4a2.dev224

  ==> Input File <==

--------------------------------------------------------------------------
#Generated by lconvert.py for sapt job

memory 20 GB

molecule  {
0 1
  C       1.952940   -0.000020    0.000020
  H       2.317650   -0.471620    0.907560
  H       2.317720   -0.550420   -0.861990
  H       2.320030    1.020920   -0.045480
  H       0.867410    0.001600   -0.000090
--
0 1
  O      -1.970510    0.000250   -0.000110
  H      -2.566120    0.752120    0.000380
  H      -2.561660   -0.755130    0.000380
units angstrom
no_reorient
symmetry c1
}

set {
scf_type DF
basis aug-cc-pvdz
freeze_core True
guess SAD
}
energy('sapt2+')
--------------------------------------------------------------------------

  //              Dimer HF             //
    Molecular point group: c1
  Charge       = 0
  Multiplicity = 1
  Basis Set: AUG-CC-PVDZ
    Blend: AUG-CC-PVDZ
  Basis Set: (AUG-CC-PVDZ AUX)
    Blend: AUG-CC-PVDZ-JKFIT
  @DF-RHF Final Energy:  -116.24119859285057
    Total Energy =                       -116.2411985928505658
  //            Monomer A HF           //
    Molecular point group: c1
  Multiplicity = 1
  Basis Set: AUG-CC-PVDZ
    Blend: AUG-CC-PVDZ
  Basis Set: (AUG-CC-PVDZ AUX)
    Blend: AUG-CC-PVDZ-JKFIT
  @DF-RHF Final Energy:   -40.19964746988431
    Total Energy =                        -40.1996474698843116
  //            Monomer B HF           //
    Molecular point group: c1

    Geometry (in Angstrom), charge = 0, multiplicity = 1:

       Center              X                  Y                   Z               Mass
    ------------   -----------------  -----------------  -----------------  -----------------
      Gh(C)           2.110591190377    -0.000055513076     0.000042134322    12.000000000000
      Gh(H)           2.475301190377    -0.471655513076     0.907582134322     1.007825032230
      Gh(H)           2.475371190377    -0.550455513076    -0.861967865678     1.007825032230
      Gh(H)           2.477681190377     1.020884486924    -0.045457865678     1.007825032230
      Gh(H)           1.025061190377     0.001564486924    -0.000067865678     1.007825032230
         O           -1.812858809623     0.000214486924    -0.000087865678    15.994914619570
         H           -2.408468809623     0.752084486924     0.000402134322     1.007825032230
         H           -2.404008809623    -0.755165513076     0.000402134322     1.007825032230

  Charge       = 0
  Multiplicity = 1
  Basis Set: AUG-CC-PVDZ
    Blend: AUG-CC-PVDZ
  Basis Set: (AUG-CC-PVDZ AUX)
    Blend: AUG-CC-PVDZ-JKFIT

    Orbital Energies [Eh]
    ---------------------

    Doubly Occupied:

       1A    -20.578017     2A     -1.356347     3A     -0.716394
       4A     -0.587120     5A     -0.509537

  @DF-RHF Final Energy:   -76.04132261490479

   => Energetics <=

    Nuclear Repulsion Energy =              9.1780905519373892
    One-Electron Energy =                -122.9439962498869932
    Two-Electron Energy =                  37.7245830830448199
    Total Energy =                        -76.0413226149047858

  Dipole Moment: [D]
     X:    -2.0179      Y:    -0.0059      Z:     0.0017     Total:     2.0179

    SAPT Results
  --------------------------------------------------------------------------------------------------------
    Electrostatics                 -0.70564447 [mEh]      -0.44279859 [kcal/mol]      -1.85266931 [kJ/mol]
      Elst10,r                     -0.68746587 [mEh]      -0.43139135 [kcal/mol]      -1.80494140 [kJ/mol]
      Elst12,r                     -0.01817860 [mEh]      -0.01140724 [kcal/mol]      -0.04772791 [kJ/mol]

    Exchange                        0.84044833 [mEh]       0.52738929 [kcal/mol]       2.20659679 [kJ/mol]
      Exch10                        0.71532083 [mEh]       0.44887060 [kcal/mol]       1.87807458 [kJ/mol]
      Exch10(S^2)                   0.71485426 [mEh]       0.44857782 [kcal/mol]       1.87684961 [kJ/mol]
      Exch11(S^2)                  -0.01528971 [mEh]      -0.00959444 [kcal/mol]      -0.04014313 [kJ/mol]
      Exch12(S^2)                   0.14041721 [mEh]       0.08811313 [kcal/mol]       0.36866533 [kJ/mol]

    Induction                      -0.25754706 [mEh]      -0.16161322 [kcal/mol]      -0.67618972 [kJ/mol]
      Ind20,r                      -0.27762025 [mEh]      -0.17420934 [kcal/mol]      -0.72889186 [kJ/mol]
      Ind22                        -0.00164164 [mEh]      -0.00103015 [kcal/mol]      -0.00431013 [kJ/mol]
      Exch-Ind20,r                  0.07738556 [mEh]       0.04856017 [kcal/mol]       0.20317577 [kJ/mol]
      Exch-Ind22                    0.00045760 [mEh]       0.00028715 [kcal/mol]       0.00120143 [kJ/mol]
      delta HF,r (2)               -0.05612833 [mEh]      -0.03522106 [kcal/mol]      -0.14736492 [kJ/mol]

    Dispersion                     -0.81540860 [mEh]      -0.51167662 [kcal/mol]      -2.14085499 [kJ/mol]
      Disp20                       -0.76946875 [mEh]      -0.48284893 [kcal/mol]      -2.02023993 [kJ/mol]
      Disp21                        0.00349593 [mEh]       0.00219373 [kcal/mol]       0.00917856 [kJ/mol]
      Disp22 (SDQ)                 -0.00344364 [mEh]      -0.00216091 [kcal/mol]      -0.00904126 [kJ/mol]
      Disp22 (T)                   -0.09603027 [mEh]      -0.06025990 [kcal/mol]      -0.25212743 [kJ/mol]
      Est. Disp22 (T)              -0.10677623 [mEh]      -0.06700309 [kcal/mol]      -0.28034095 [kJ/mol]
      Exch-Disp20                   0.06078408 [mEh]       0.03814259 [kcal/mol]       0.15958859 [kJ/mol]

  Total HF                         -0.22850806 [mEh]      -0.14339097 [kcal/mol]      -0.59994783 [kJ/mol]
  Total SAPT0                      -0.93719273 [mEh]      -0.58809732 [kcal/mol]      -2.46059918 [kJ/mol]
  Total SAPT2                      -0.83142787 [mEh]      -0.52172887 [kcal/mol]      -2.18291358 [kJ/mol]
  Total SAPT2+                     -0.93815181 [mEh]      -0.58869915 [kcal/mol]      -2.46311723 [kJ/mol]

  Special recipe for scaled SAPT0 (see Manual):
    Electrostatics sSAPT0          -0.68746587 [mEh]      -0.43139135 [kcal/mol]      -1.80494140 [kJ/mol]
    Exchange sSAPT0                 0.71532083 [mEh]       0.44887060 [kcal/mol]       1.87807458 [kJ/mol]
    Induction sSAPT0               -0.25621140 [mEh]      -0.16077508 [kcal/mol]      -0.67268293 [kJ/mol]
    Dispersion sSAPT0              -0.70856558 [mEh]      -0.44463161 [kcal/mol]      -1.86033866 [kJ/mol]
  Total sSAPT0                     -0.93692201 [mEh]      -0.58792744 [kcal/mol]      -2.45988841 [kJ/mol]
  --------------------------------------------------------------------------------------------------------

*** Psi4 exiting successfully. Buy a developer a beer!
