                               Psi4 1.4a2.dev224

  ==> Input File <==

--------------------------------------------------------------------------
#Generated by lconvert.py for sapt job

memory 20 GB

molecule  {
0 1
  C       1.952940   -0.000020    0.000020
  H       2.317650   -0.471620    0.907560
  H       2.317720   -0.550420   -0.861990
  H       2.320030    1.020920   -0.045480
  H       0.867410    0.001600   -0.000090
--
0 1
  O      -1.835370    0.000310   -0.000110
  H      -2.430990    0.752180    0.000380
  H      -2.426520   -0.755070    0.000380
units angstrom
no_reorient
symmetry c1
}

set {
scf_type DF
basis aug-cc-pvdz
freeze_core True
guess SAD
}
energy('sapt2+')
--------------------------------------------------------------------------

  //              Dimer HF             //
    Molecular point group: c1
  Charge       = 0
  Multiplicity = 1
  Basis Set: AUG-CC-PVDZ
    Blend: AUG-CC-PVDZ
  Basis Set: (AUG-CC-PVDZ AUX)
    Blend: AUG-CC-PVDZ-JKFIT
  @DF-RHF Final Energy:  -116.24111102655097
    Total Energy =                       -116.2411110265509677
  //            Monomer A HF           //
    Molecular point group: c1
  Multiplicity = 1
  Basis Set: AUG-CC-PVDZ
    Blend: AUG-CC-PVDZ
  Basis Set: (AUG-CC-PVDZ AUX)
    Blend: AUG-CC-PVDZ-JKFIT
  @DF-RHF Final Energy:   -40.19965967367435
    Total Energy =                        -40.1996596736743470
  //            Monomer B HF           //
    Molecular point group: c1

    Geometry (in Angstrom), charge = 0, multiplicity = 1:

       Center              X                  Y                   Z               Mass
    ------------   -----------------  -----------------  -----------------  -----------------
      Gh(C)           2.039092826626    -0.000087257338     0.000042134322    12.000000000000
      Gh(H)           2.403802826626    -0.471687257338     0.907582134322     1.007825032230
      Gh(H)           2.403872826626    -0.550487257338    -0.861967865678     1.007825032230
      Gh(H)           2.406182826626     1.020852742662    -0.045457865678     1.007825032230
      Gh(H)           0.953562826626     0.001532742662    -0.000067865678     1.007825032230
         O           -1.749217173374     0.000242742662    -0.000087865678    15.994914619570
         H           -2.344837173374     0.752112742662     0.000402134322     1.007825032230
         H           -2.340367173374    -0.755137257338     0.000402134322     1.007825032230

  Charge       = 0
  Multiplicity = 1
  Basis Set: AUG-CC-PVDZ
    Blend: AUG-CC-PVDZ
  Basis Set: (AUG-CC-PVDZ AUX)
    Blend: AUG-CC-PVDZ-JKFIT

    Orbital Energies [Eh]
    ---------------------

    Doubly Occupied:

       1A    -20.578006     2A     -1.356340     3A     -0.716388
       4A     -0.587109     5A     -0.509517

  @DF-RHF Final Energy:   -76.04134685810455

   => Energetics <=

    Nuclear Repulsion Energy =              9.1780619738492764
    One-Electron Energy =                -122.9440996983505272
    Two-Electron Energy =                  37.7246908663966991
    Total Energy =                        -76.0413468581045464

  Dipole Moment: [D]
     X:    -2.0172      Y:    -0.0059      Z:     0.0017     Total:     2.0172

    SAPT Results
  --------------------------------------------------------------------------------------------------------
    Electrostatics                 -0.95752602 [mEh]      -0.60085665 [kcal/mol]      -2.51398423 [kJ/mol]
      Elst10,r                     -0.92155470 [mEh]      -0.57828431 [kcal/mol]      -2.41954153 [kJ/mol]
      Elst12,r                     -0.03597132 [mEh]      -0.02257235 [kcal/mol]      -0.09444270 [kJ/mol]

    Exchange                        1.35524598 [mEh]       0.85042969 [kcal/mol]       3.55819784 [kJ/mol]
      Exch10                        1.16544712 [mEh]       0.73132911 [kcal/mol]       3.05988100 [kJ/mol]
      Exch10(S^2)                   1.16424979 [mEh]       0.73057777 [kcal/mol]       3.05673739 [kJ/mol]
      Exch11(S^2)                  -0.02096346 [mEh]      -0.01315477 [kcal/mol]      -0.05503956 [kJ/mol]
      Exch12(S^2)                   0.21076232 [mEh]       0.13225535 [kcal/mol]       0.55335639 [kJ/mol]

    Induction                      -0.35511870 [mEh]      -0.22284035 [kcal/mol]      -0.93236401 [kJ/mol]
      Ind20,r                      -0.39271777 [mEh]      -0.24643412 [kcal/mol]      -1.03108035 [kJ/mol]
      Ind22                        -0.01041752 [mEh]      -0.00653710 [kcal/mol]      -0.02735121 [kJ/mol]
      Exch-Ind20,r                  0.13895497 [mEh]       0.08719556 [kcal/mol]       0.36482621 [kJ/mol]
      Exch-Ind22                    0.00368602 [mEh]       0.00231301 [kcal/mol]       0.00967765 [kJ/mol]
      delta HF,r (2)               -0.09462439 [mEh]      -0.05937770 [kcal/mol]      -0.24843631 [kJ/mol]

    Dispersion                     -1.03858481 [mEh]      -0.65172181 [kcal/mol]      -2.72680405 [kJ/mol]
      Disp20                       -0.99659945 [mEh]      -0.62537560 [kcal/mol]      -2.61657150 [kJ/mol]
      Disp21                        0.00565220 [mEh]       0.00354681 [kcal/mol]       0.01483984 [kJ/mol]
      Disp22 (SDQ)                 -0.00466275 [mEh]      -0.00292592 [kcal/mol]      -0.01224205 [kJ/mol]
      Disp22 (T)                   -0.12310709 [mEh]      -0.07725086 [kcal/mol]      -0.32321762 [kJ/mol]
      Est. Disp22 (T)              -0.13749529 [mEh]      -0.08627960 [kcal/mol]      -0.36099385 [kJ/mol]
      Exch-Disp20                   0.09452049 [mEh]       0.05931250 [kcal/mol]       0.24816351 [kJ/mol]

  Total HF                         -0.10449477 [mEh]      -0.06557146 [kcal/mol]      -0.27435099 [kJ/mol]
  Total SAPT0                      -1.00657373 [mEh]      -0.63163455 [kcal/mol]      -2.64275897 [kJ/mol]
  Total SAPT2                      -0.85947770 [mEh]      -0.53933040 [kcal/mol]      -2.25655839 [kJ/mol]
  Total SAPT2+                     -0.99598355 [mEh]      -0.62498911 [kcal/mol]      -2.61495445 [kJ/mol]

  Special recipe for scaled SAPT0 (see Manual):
    Electrostatics sSAPT0          -0.92155470 [mEh]      -0.57828431 [kcal/mol]      -2.41954153 [kJ/mol]
    Exchange sSAPT0                 1.16544712 [mEh]       0.73132911 [kcal/mol]       3.05988100 [kJ/mol]
    Induction sSAPT0               -0.34795804 [mEh]      -0.21834697 [kcal/mol]      -0.91356371 [kJ/mol]
    Dispersion sSAPT0              -0.90178704 [mEh]      -0.56587991 [kcal/mol]      -2.36764155 [kJ/mol]
  Total sSAPT0                     -1.00585266 [mEh]      -0.63118207 [kcal/mol]      -2.64086579 [kJ/mol]
  --------------------------------------------------------------------------------------------------------

*** Psi4 exiting successfully. Buy a developer a beer!
