                               Psi4 1.4a2.dev224

  ==> Input File <==

--------------------------------------------------------------------------
#Generated by lconvert.py for sapt job

memory 20 GB

molecule  {
0 1
  C       1.952940   -0.000020    0.000020
  H       2.317650   -0.471620    0.907560
  H       2.317720   -0.550420   -0.861990
  H       2.320030    1.020920   -0.045480
  H       0.867410    0.001600   -0.000090
--
0 1
  O      -1.294810    0.000570   -0.000110
  H      -1.890430    0.752440    0.000390
  H      -1.885970   -0.754810    0.000380
units angstrom
no_reorient
symmetry c1
}

set {
scf_type DF
basis aug-cc-pvdz
freeze_core True
guess SAD
}
energy('sapt2+')
--------------------------------------------------------------------------

  //              Dimer HF             //
    Molecular point group: c1
  Charge       = 0
  Multiplicity = 1
  Basis Set: AUG-CC-PVDZ
    Blend: AUG-CC-PVDZ
  Basis Set: (AUG-CC-PVDZ AUX)
    Blend: AUG-CC-PVDZ-JKFIT
  @DF-RHF Final Energy:  -116.23850325897203
    Total Energy =                       -116.2385032589720311
  //            Monomer A HF           //
    Molecular point group: c1
  Multiplicity = 1
  Basis Set: AUG-CC-PVDZ
    Blend: AUG-CC-PVDZ
  Basis Set: (AUG-CC-PVDZ AUX)
    Blend: AUG-CC-PVDZ-JKFIT
  @DF-RHF Final Energy:   -40.19971063124245
    Total Energy =                        -40.1997106312424464
  //            Monomer B HF           //
    Molecular point group: c1

    Geometry (in Angstrom), charge = 0, multiplicity = 1:

       Center              X                  Y                   Z               Mass
    ------------   -----------------  -----------------  -----------------  -----------------
      Gh(C)           1.753098483459    -0.000224815807     0.000041838267    12.000000000000
      Gh(H)           2.117808483459    -0.471824815807     0.907581838267     1.007825032230
      Gh(H)           2.117878483459    -0.550624815807    -0.861968161733     1.007825032230
      Gh(H)           2.120188483459     1.020715184193    -0.045458161733     1.007825032230
      Gh(H)           0.667568483459     0.001395184193    -0.000068161733     1.007825032230
         O           -1.494651516541     0.000365184193    -0.000088161733    15.994914619570
         H           -2.090271516541     0.752235184193     0.000411838267     1.007825032230
         H           -2.085811516541    -0.755014815807     0.000401838267     1.007825032230

  Charge       = 0
  Multiplicity = 1
  Basis Set: AUG-CC-PVDZ
    Blend: AUG-CC-PVDZ
  Basis Set: (AUG-CC-PVDZ AUX)
    Blend: AUG-CC-PVDZ-JKFIT

    Orbital Energies [Eh]
    ---------------------

    Doubly Occupied:

       1A    -20.577996     2A     -1.356288     3A     -0.716339
       4A     -0.587025     5A     -0.509389

  @DF-RHF Final Energy:   -76.04150997209703

   => Energetics <=

    Nuclear Repulsion Energy =              9.1780335996342739
    One-Electron Energy =                -122.9450131727161164
    Two-Electron Energy =                  37.7254696009848089
    Total Energy =                        -76.0415099720970318

  Dipole Moment: [D]
     X:    -2.0122      Y:    -0.0059      Z:     0.0017     Total:     2.0122

    SAPT Results
  --------------------------------------------------------------------------------------------------------
    Electrostatics                 -4.08444094 [mEh]      -2.56302538 [kcal/mol]     -10.72369820 [kJ/mol]
      Elst10,r                     -3.84520401 [mEh]      -2.41290194 [kcal/mol]     -10.09558173 [kJ/mol]
      Elst12,r                     -0.23923693 [mEh]      -0.15012344 [kcal/mol]      -0.62811647 [kJ/mol]

    Exchange                        8.98858679 [mEh]       5.64042337 [kcal/mol]      23.59953137 [kJ/mol]
      Exch10                        8.06518898 [mEh]       5.06098249 [kcal/mol]      21.17515074 [kJ/mol]
      Exch10(S^2)                   8.01644398 [mEh]       5.03039454 [kcal/mol]      21.04717078 [kJ/mol]
      Exch11(S^2)                  -0.05222127 [mEh]      -0.03276934 [kcal/mol]      -0.13710693 [kJ/mol]
      Exch12(S^2)                   0.97561908 [mEh]       0.61221022 [kcal/mol]       2.56148755 [kJ/mol]

    Induction                      -1.56882246 [mEh]      -0.98445096 [kcal/mol]      -4.11894281 [kJ/mol]
      Ind20,r                      -2.23419855 [mEh]      -1.40198076 [kcal/mol]      -5.86588748 [kJ/mol]
      Ind22                        -0.19746416 [mEh]      -0.12391063 [kcal/mol]      -0.51844209 [kJ/mol]
      Exch-Ind20,r                  1.48538716 [mEh]       0.93209451 [kcal/mol]       3.89988345 [kJ/mol]
      Exch-Ind22                    0.13128230 [mEh]       0.08238089 [kcal/mol]       0.34468164 [kJ/mol]
      delta HF,r (2)               -0.75382921 [mEh]      -0.47303497 [kcal/mol]      -1.97917833 [kJ/mol]

    Dispersion                     -2.82661958 [mEh]      -1.77373056 [kcal/mol]      -7.42128868 [kJ/mol]
      Disp20                       -3.03512472 [mEh]      -1.90456952 [kcal/mol]      -7.96871886 [kJ/mol]
      Disp21                        0.08133165 [mEh]       0.05103638 [kcal/mol]       0.21353622 [kJ/mol]
      Disp22 (SDQ)                 -0.01141939 [mEh]      -0.00716578 [kcal/mol]      -0.02998160 [kJ/mol]
      Disp22 (T)                   -0.33933666 [mEh]      -0.21293697 [kcal/mol]      -0.89092827 [kJ/mol]
      Est. Disp22 (T)              -0.39413064 [mEh]      -0.24732071 [kcal/mol]      -1.03478985 [kJ/mol]
      Exch-Disp20                   0.53272352 [mEh]       0.33428906 [kcal/mol]       1.39866542 [kJ/mol]

  Total HF                          2.71734437 [mEh]       1.70515933 [kcal/mol]       7.13438665 [kJ/mol]
  Total SAPT0                       0.21494317 [mEh]       0.13487887 [kcal/mol]       0.56433321 [kJ/mol]
  Total SAPT2                       0.83292219 [mEh]       0.52266657 [kcal/mol]       2.18683691 [kJ/mol]
  Total SAPT2+                      0.50870381 [mEh]       0.31921646 [kcal/mol]       1.33560168 [kJ/mol]

  Special recipe for scaled SAPT0 (see Manual):
    Electrostatics sSAPT0          -3.84520401 [mEh]      -2.41290194 [kcal/mol]     -10.09558173 [kJ/mol]
    Exchange sSAPT0                 8.06518898 [mEh]       5.06098249 [kcal/mol]      21.17515074 [kJ/mol]
    Induction sSAPT0               -1.47537926 [mEh]      -0.92581446 [kcal/mol]      -3.87360770 [kJ/mol]
    Dispersion sSAPT0              -2.49262411 [mEh]      -1.56414524 [kcal/mol]      -6.54438370 [kJ/mol]
  Total sSAPT0                      0.25198160 [mEh]       0.15812084 [kcal/mol]       0.66157760 [kJ/mol]
  --------------------------------------------------------------------------------------------------------

*** Psi4 exiting successfully. Buy a developer a beer!
