                               Psi4 1.4a2.dev224

  ==> Input File <==

--------------------------------------------------------------------------
#Generated by lconvert.py for sapt job

memory 20 GB

molecule  {
0 1
  C       1.952940   -0.000020    0.000020
  H       2.317650   -0.471620    0.907560
  H       2.317720   -0.550420   -0.861990
  H       2.320030    1.020920   -0.045480
  H       0.867410    0.001600   -0.000090
--
0 1
  O      -2.646200   -0.000070   -0.000120
  H      -3.241820    0.751800    0.000380
  H      -3.237360   -0.755450    0.000370
units angstrom
no_reorient
symmetry c1
}

set {
scf_type DF
basis aug-cc-pvdz
freeze_core True
guess SAD
}
energy('sapt2+')
--------------------------------------------------------------------------

  //              Dimer HF             //
    Molecular point group: c1
  Charge       = 0
  Multiplicity = 1
  Basis Set: AUG-CC-PVDZ
    Blend: AUG-CC-PVDZ
  Basis Set: (AUG-CC-PVDZ AUX)
    Blend: AUG-CC-PVDZ-JKFIT
  @DF-RHF Final Energy:  -116.24113805545367
    Total Energy =                       -116.2411380554536748
  //            Monomer A HF           //
    Molecular point group: c1
  Multiplicity = 1
  Basis Set: AUG-CC-PVDZ
    Blend: AUG-CC-PVDZ
  Basis Set: (AUG-CC-PVDZ AUX)
    Blend: AUG-CC-PVDZ-JKFIT
  @DF-RHF Final Energy:   -40.19962123176599
    Total Energy =                        -40.1996212317659882
  //            Monomer B HF           //
    Molecular point group: c1

    Geometry (in Angstrom), charge = 0, multiplicity = 1:

       Center              X                  Y                   Z               Mass
    ------------   -----------------  -----------------  -----------------  -----------------
      Gh(C)           2.468079790802     0.000113789656     0.000047128977    12.000000000000
      Gh(H)           2.832789790802    -0.471486210344     0.907587128977     1.007825032230
      Gh(H)           2.832859790802    -0.550286210344    -0.861962871023     1.007825032230
      Gh(H)           2.835169790802     1.021053789656    -0.045452871023     1.007825032230
      Gh(H)           1.382549790802     0.001733789656    -0.000062871023     1.007825032230
         O           -2.131060209198     0.000063789656    -0.000092871023    15.994914619570
         H           -2.726680209198     0.751933789656     0.000407128977     1.007825032230
         H           -2.722220209198    -0.755316210344     0.000397128977     1.007825032230

  Charge       = 0
  Multiplicity = 1
  Basis Set: AUG-CC-PVDZ
    Blend: AUG-CC-PVDZ
  Basis Set: (AUG-CC-PVDZ AUX)
    Blend: AUG-CC-PVDZ-JKFIT

    Orbital Energies [Eh]
    ---------------------

    Doubly Occupied:

       1A    -20.578041     2A     -1.356341     3A     -0.716375
       4A     -0.587144     5A     -0.509551

  @DF-RHF Final Energy:   -76.04127646509986

   => Energetics <=

    Nuclear Repulsion Energy =              9.1780335996342739
    One-Electron Energy =                -122.9437184470692017
    Two-Electron Energy =                  37.7244083823350635
    Total Energy =                        -76.0412764650998554

  Dipole Moment: [D]
     X:    -2.0179      Y:    -0.0059      Z:     0.0017     Total:     2.0179

    SAPT Results
  --------------------------------------------------------------------------------------------------------
    Electrostatics                 -0.21966132 [mEh]      -0.13783956 [kcal/mol]      -0.57672071 [kJ/mol]
      Elst10,r                     -0.22674556 [mEh]      -0.14228499 [kcal/mol]      -0.59532039 [kJ/mol]
      Elst12,r                      0.00708425 [mEh]       0.00444543 [kcal/mol]       0.01859968 [kJ/mol]

    Exchange                        0.07460527 [mEh]       0.04681552 [kcal/mol]       0.19587612 [kJ/mol]
      Exch10                        0.06019546 [mEh]       0.03777322 [kcal/mol]       0.15804315 [kJ/mol]
      Exch10(S^2)                   0.06019160 [mEh]       0.03777080 [kcal/mol]       0.15803302 [kJ/mol]
      Exch11(S^2)                  -0.00237357 [mEh]      -0.00148944 [kcal/mol]      -0.00623180 [kJ/mol]
      Exch12(S^2)                   0.01678338 [mEh]       0.01053173 [kcal/mol]       0.04406477 [kJ/mol]

    Induction                      -0.06908514 [mEh]      -0.04335158 [kcal/mol]      -0.18138300 [kJ/mol]
      Ind20,r                      -0.07346534 [mEh]      -0.04610020 [kcal/mol]      -0.19288323 [kJ/mol]
      Ind22                         0.00504163 [mEh]       0.00316367 [kcal/mol]       0.01323681 [kJ/mol]
      Exch-Ind20,r                  0.00463800 [mEh]       0.00291039 [kcal/mol]       0.01217705 [kJ/mol]
      Exch-Ind22                   -0.00031829 [mEh]      -0.00019973 [kcal/mol]      -0.00083566 [kJ/mol]
      delta HF,r (2)               -0.00498113 [mEh]      -0.00312571 [kcal/mol]      -0.01307796 [kJ/mol]

    Dispersion                     -0.26080829 [mEh]      -0.16365967 [kcal/mol]      -0.68475206 [kJ/mol]
      Disp20                       -0.23696130 [mEh]      -0.14869546 [kcal/mol]      -0.62214182 [kJ/mol]
      Disp21                        0.00355843 [mEh]       0.00223295 [kcal/mol]       0.00934265 [kJ/mol]
      Disp22 (SDQ)                 -0.00024064 [mEh]      -0.00015100 [kcal/mol]      -0.00063180 [kJ/mol]
      Disp22 (T)                   -0.03149042 [mEh]      -0.01976053 [kcal/mol]      -0.08267807 [kJ/mol]
      Est. Disp22 (T)              -0.03360011 [mEh]      -0.02108439 [kcal/mol]      -0.08821707 [kJ/mol]
      Exch-Disp20                   0.00643534 [mEh]       0.00403824 [kcal/mol]       0.01689598 [kJ/mol]

  Total HF                         -0.24035859 [mEh]      -0.15082729 [kcal/mol]      -0.63106139 [kJ/mol]
  Total SAPT0                      -0.47088455 [mEh]      -0.29548452 [kcal/mol]      -1.23630722 [kJ/mol]
  Total SAPT2                      -0.44466714 [mEh]      -0.27903284 [kcal/mol]      -1.16747342 [kJ/mol]
  Total SAPT2+                     -0.47494947 [mEh]      -0.29803529 [kcal/mol]      -1.24697965 [kJ/mol]

  Special recipe for scaled SAPT0 (see Manual):
    Electrostatics sSAPT0          -0.22674556 [mEh]      -0.14228499 [kcal/mol]      -0.59532039 [kJ/mol]
    Exchange sSAPT0                 0.06019546 [mEh]       0.03777322 [kcal/mol]       0.15804315 [kJ/mol]
    Induction sSAPT0               -0.07380759 [mEh]      -0.04631496 [kcal/mol]      -0.19378180 [kJ/mol]
    Dispersion sSAPT0              -0.23052473 [mEh]      -0.14465645 [kcal/mol]      -0.60524259 [kJ/mol]
  Total sSAPT0                     -0.47088242 [mEh]      -0.29548318 [kcal/mol]      -1.23630164 [kJ/mol]
  --------------------------------------------------------------------------------------------------------

*** Psi4 exiting successfully. Buy a developer a beer!
