                               Psi4 1.4a2.dev224

  ==> Input File <==

--------------------------------------------------------------------------
#Generated by lconvert.py for sapt job

memory 20 GB

molecule  {
0 1
  C       1.952940   -0.000020    0.000020
  H       2.317650   -0.471620    0.907560
  H       2.317720   -0.550420   -0.861990
  H       2.320030    1.020920   -0.045480
  H       0.867410    0.001600   -0.000090
--
0 1
  O      -1.700230    0.000380   -0.000110
  H      -2.295850    0.752250    0.000380
  H      -2.291380   -0.755000    0.000380
units angstrom
no_reorient
symmetry c1
}

set {
scf_type DF
basis aug-cc-pvdz
freeze_core True
guess SAD
}
energy('sapt2+')
--------------------------------------------------------------------------

  //              Dimer HF             //
    Molecular point group: c1
  Charge       = 0
  Multiplicity = 1
  Basis Set: AUG-CC-PVDZ
    Blend: AUG-CC-PVDZ
  Basis Set: (AUG-CC-PVDZ AUX)
    Blend: AUG-CC-PVDZ-JKFIT
  @DF-RHF Final Energy:  -116.24091158440754
    Total Energy =                       -116.2409115844075416
  //            Monomer A HF           //
    Molecular point group: c1
  Multiplicity = 1
  Basis Set: AUG-CC-PVDZ
    Blend: AUG-CC-PVDZ
  Basis Set: (AUG-CC-PVDZ AUX)
    Blend: AUG-CC-PVDZ-JKFIT
  @DF-RHF Final Energy:   -40.19967373880909
    Total Energy =                        -40.1996737388090892
  //            Monomer B HF           //
    Molecular point group: c1

    Geometry (in Angstrom), charge = 0, multiplicity = 1:

       Center              X                  Y                   Z               Mass
    ------------   -----------------  -----------------  -----------------  -----------------
      Gh(C)           1.967594166820    -0.000124292310     0.000042134322    12.000000000000
      Gh(H)           2.332304166820    -0.471724292310     0.907582134322     1.007825032230
      Gh(H)           2.332374166820    -0.550524292310    -0.861967865678     1.007825032230
      Gh(H)           2.334684166820     1.020815707690    -0.045457865678     1.007825032230
      Gh(H)           0.882064166820     0.001495707690    -0.000067865678     1.007825032230
         O           -1.685575833180     0.000275707690    -0.000087865678    15.994914619570
         H           -2.281195833180     0.752145707690     0.000402134322     1.007825032230
         H           -2.276725833180    -0.755104292310     0.000402134322     1.007825032230

  Charge       = 0
  Multiplicity = 1
  Basis Set: AUG-CC-PVDZ
    Blend: AUG-CC-PVDZ
  Basis Set: (AUG-CC-PVDZ AUX)
    Blend: AUG-CC-PVDZ-JKFIT

    Orbital Energies [Eh]
    ---------------------

    Doubly Occupied:

       1A    -20.577999     2A     -1.356331     3A     -0.716381
       4A     -0.587093     5A     -0.509491

  @DF-RHF Final Energy:   -76.04137920484558

   => Energetics <=

    Nuclear Repulsion Energy =              9.1780619738492764
    One-Electron Energy =                -122.9442923274998236
    Two-Electron Energy =                  37.7248511488049729
    Total Energy =                        -76.0413792048455690

  Dipole Moment: [D]
     X:    -2.0163      Y:    -0.0059      Z:     0.0017     Total:     2.0163

    SAPT Results
  --------------------------------------------------------------------------------------------------------
    Electrostatics                 -1.33247177 [mEh]      -0.83613866 [kcal/mol]      -3.49840416 [kJ/mol]
      Elst10,r                     -1.26952865 [mEh]      -0.79664126 [kcal/mol]      -3.33314702 [kJ/mol]
      Elst12,r                     -0.06294312 [mEh]      -0.03949740 [kcal/mol]      -0.16525714 [kJ/mol]

    Exchange                        2.18338072 [mEh]       1.37009209 [kcal/mol]       5.73246530 [kJ/mol]
      Exch10                        1.89546721 [mEh]       1.18942363 [kcal/mol]       4.97654847 [kJ/mol]
      Exch10(S^2)                   1.89241324 [mEh]       1.18750724 [kcal/mol]       4.96853027 [kJ/mol]
      Exch11(S^2)                  -0.02797845 [mEh]      -0.01755674 [kcal/mol]      -0.07345741 [kJ/mol]
      Exch12(S^2)                   0.31589197 [mEh]       0.19822520 [kcal/mol]       0.82937424 [kJ/mol]

    Induction                      -0.49968231 [mEh]      -0.31355538 [kcal/mol]      -1.31191573 [kJ/mol]
      Ind20,r                      -0.57556057 [mEh]      -0.36116971 [kcal/mol]      -1.51113408 [kJ/mol]
      Ind22                        -0.02675703 [mEh]      -0.01679029 [kcal/mol]      -0.07025057 [kJ/mol]
      Exch-Ind20,r                  0.25068539 [mEh]       0.15730746 [kcal/mol]       0.65817441 [kJ/mol]
      Exch-Ind22                    0.01165402 [mEh]       0.00731301 [kcal/mol]       0.03059763 [kJ/mol]
      delta HF,r (2)               -0.15970412 [mEh]      -0.10021585 [kcal/mol]      -0.41930312 [kJ/mol]

    Dispersion                     -1.32779186 [mEh]      -0.83320197 [kcal/mol]      -3.48611705 [kJ/mol]
      Disp20                       -1.30049420 [mEh]      -0.81607243 [kcal/mol]      -3.41444705 [kJ/mol]
      Disp21                        0.01095967 [mEh]       0.00687729 [kcal/mol]       0.02877460 [kJ/mol]
      Disp22 (SDQ)                 -0.00601496 [mEh]      -0.00377445 [kcal/mol]      -0.01579228 [kJ/mol]
      Disp22 (T)                   -0.15949632 [mEh]      -0.10008545 [kcal/mol]      -0.41875754 [kJ/mol]
      Est. Disp22 (T)              -0.17879614 [mEh]      -0.11219627 [kcal/mol]      -0.46942919 [kJ/mol]
      Exch-Disp20                   0.14655377 [mEh]       0.09196388 [kcal/mol]       0.38477688 [kJ/mol]

  Total HF                          0.14135925 [mEh]       0.08870427 [kcal/mol]       0.37113865 [kJ/mol]
  Total SAPT0                      -1.01258118 [mEh]      -0.63540428 [kcal/mol]      -2.65853152 [kJ/mol]
  Total SAPT2                      -0.80271379 [mEh]      -0.50371051 [kcal/mol]      -2.10752476 [kJ/mol]
  Total SAPT2+                     -0.97656522 [mEh]      -0.61280393 [kcal/mol]      -2.56397163 [kJ/mol]

  Special recipe for scaled SAPT0 (see Manual):
    Electrostatics sSAPT0          -1.26952865 [mEh]      -0.79664126 [kcal/mol]      -3.33314702 [kJ/mol]
    Exchange sSAPT0                 1.89546721 [mEh]       1.18942363 [kcal/mol]       4.97654847 [kJ/mol]
    Induction sSAPT0               -0.48336368 [mEh]      -0.30331529 [kcal/mol]      -1.26907117 [kJ/mol]
    Dispersion sSAPT0              -1.15322976 [mEh]      -0.72366260 [kcal/mol]      -3.02780431 [kJ/mol]
  Total sSAPT0                     -1.01065489 [mEh]      -0.63419552 [kcal/mol]      -2.65347404 [kJ/mol]
  --------------------------------------------------------------------------------------------------------

*** Psi4 exiting successfully. Buy a developer a beer!
