                               Psi4 1.4a2.dev224

  ==> Input File <==

--------------------------------------------------------------------------
#Generated by lconvert.py for sapt job

memory 20 GB

molecule  {
0 1
  C       1.952940   -0.000020    0.000020
  H       2.317650   -0.471620    0.907560
  H       2.317720   -0.550420   -0.861990
  H       2.320030    1.020920   -0.045480
  H       0.867410    0.001600   -0.000090
--
0 1
  O      -3.457030   -0.000460   -0.000120
  H      -4.052650    0.751420    0.000370
  H      -4.048190   -0.755840    0.000370
units angstrom
no_reorient
symmetry c1
}

set {
scf_type DF
basis aug-cc-pvdz
freeze_core True
guess SAD
}
energy('sapt2+')
--------------------------------------------------------------------------

  //              Dimer HF             //
    Molecular point group: c1
  Charge       = 0
  Multiplicity = 1
  Basis Set: AUG-CC-PVDZ
    Blend: AUG-CC-PVDZ
  Basis Set: (AUG-CC-PVDZ AUX)
    Blend: AUG-CC-PVDZ-JKFIT
  @DF-RHF Final Energy:  -116.24097256954428
    Total Energy =                       -116.2409725695442830
  //            Monomer A HF           //
    Molecular point group: c1
  Multiplicity = 1
  Basis Set: AUG-CC-PVDZ
    Blend: AUG-CC-PVDZ
  Basis Set: (AUG-CC-PVDZ AUX)
    Blend: AUG-CC-PVDZ-JKFIT
  @DF-RHF Final Energy:   -40.19960292182914
    Total Energy =                        -40.1996029218291397
  //            Monomer B HF           //
    Molecular point group: c1

    Geometry (in Angstrom), charge = 0, multiplicity = 1:

       Center              X                  Y                   Z               Mass
    ------------   -----------------  -----------------  -----------------  -----------------
      Gh(C)           2.897066458923     0.000319831305     0.000047425032    12.000000000000
      Gh(H)           3.261776458923    -0.471280168695     0.907587425032     1.007825032230
      Gh(H)           3.261846458924    -0.550080168695    -0.861962574968     1.007825032230
      Gh(H)           3.264156458924     1.021259831305    -0.045452574968     1.007825032230
      Gh(H)           1.811536458924     0.001939831305    -0.000062574968     1.007825032230
         O           -2.512903541076    -0.000120168695    -0.000092574968    15.994914619570
         H           -3.108523541076     0.751759831305     0.000397425032     1.007825032230
         H           -3.104063541076    -0.755500168695     0.000397425032     1.007825032230

  Charge       = 0
  Multiplicity = 1
  Basis Set: AUG-CC-PVDZ
    Blend: AUG-CC-PVDZ
  Basis Set: (AUG-CC-PVDZ AUX)
    Blend: AUG-CC-PVDZ-JKFIT

    Orbital Energies [Eh]
    ---------------------

    Doubly Occupied:

       1A    -20.578030     2A     -1.356329     3A     -0.716364
       4A     -0.587144     5A     -0.509548

  @DF-RHF Final Energy:   -76.04125548818388

   => Energetics <=

    Nuclear Repulsion Energy =              9.1779952280389434
    One-Electron Energy =                -122.9436726171892644
    Two-Electron Energy =                  37.7244219009664477
    Total Energy =                        -76.0412554881838787

  Dipole Moment: [D]
     X:    -2.0170      Y:    -0.0059      Z:     0.0017     Total:     2.0170

    SAPT Results
  --------------------------------------------------------------------------------------------------------
    Electrostatics                 -0.08816219 [mEh]      -0.05532261 [kcal/mol]      -0.23146979 [kJ/mol]
      Elst10,r                     -0.09297749 [mEh]      -0.05834426 [kcal/mol]      -0.24411237 [kJ/mol]
      Elst12,r                      0.00481530 [mEh]       0.00302165 [kcal/mol]       0.01264258 [kJ/mol]

    Exchange                        0.00404526 [mEh]       0.00253844 [kcal/mol]       0.01062083 [kJ/mol]
      Exch10                        0.00307520 [mEh]       0.00192972 [kcal/mol]       0.00807394 [kJ/mol]
      Exch10(S^2)                   0.00307519 [mEh]       0.00192971 [kcal/mol]       0.00807391 [kJ/mol]
      Exch11(S^2)                  -0.00018636 [mEh]      -0.00011695 [kcal/mol]      -0.00048930 [kJ/mol]
      Exch12(S^2)                   0.00115642 [mEh]       0.00072567 [kcal/mol]       0.00303619 [kJ/mol]

    Induction                      -0.02203757 [mEh]      -0.01382879 [kcal/mol]      -0.05785964 [kJ/mol]
      Ind20,r                      -0.02369416 [mEh]      -0.01486831 [kcal/mol]      -0.06220900 [kJ/mol]
      Ind22                         0.00223663 [mEh]       0.00140351 [kcal/mol]       0.00587227 [kJ/mol]
      Exch-Ind20,r                  0.00017965 [mEh]       0.00011273 [kcal/mol]       0.00047166 [kJ/mol]
      Exch-Ind22                   -0.00001696 [mEh]      -0.00001064 [kcal/mol]      -0.00004452 [kJ/mol]
      delta HF,r (2)               -0.00074273 [mEh]      -0.00046607 [kcal/mol]      -0.00195005 [kJ/mol]

    Dispersion                     -0.08268240 [mEh]      -0.05188399 [kcal/mol]      -0.21708261 [kJ/mol]
      Disp20                       -0.07511957 [mEh]      -0.04713824 [kcal/mol]      -0.19722639 [kJ/mol]
      Disp21                        0.00251210 [mEh]       0.00157637 [kcal/mol]       0.00659552 [kJ/mol]
      Disp22 (SDQ)                  0.00027350 [mEh]       0.00017162 [kcal/mol]       0.00071808 [kJ/mol]
      Disp22 (T)                   -0.01032182 [mEh]      -0.00647704 [kcal/mol]      -0.02709994 [kJ/mol]
      Est. Disp22 (T)              -0.01072223 [mEh]      -0.00672830 [kcal/mol]      -0.02815122 [kJ/mol]
      Exch-Disp20                   0.00037379 [mEh]       0.00023456 [kcal/mol]       0.00098139 [kJ/mol]

  Total HF                         -0.11415953 [mEh]      -0.07163619 [kcal/mol]      -0.29972581 [kJ/mol]
  Total SAPT0                      -0.18890530 [mEh]      -0.11853987 [kcal/mol]      -0.49597081 [kJ/mol]
  Total SAPT2                      -0.18090027 [mEh]      -0.11351663 [kcal/mol]      -0.47495359 [kJ/mol]
  Total SAPT2+                     -0.18883690 [mEh]      -0.11849694 [kcal/mol]      -0.49579120 [kJ/mol]

  Special recipe for scaled SAPT0 (see Manual):
    Electrostatics sSAPT0          -0.09297749 [mEh]      -0.05834426 [kcal/mol]      -0.24411237 [kJ/mol]
    Exchange sSAPT0                 0.00307520 [mEh]       0.00192972 [kcal/mol]       0.00807394 [kJ/mol]
    Induction sSAPT0               -0.02425724 [mEh]      -0.01522165 [kcal/mol]      -0.06368739 [kJ/mol]
    Dispersion sSAPT0              -0.07474577 [mEh]      -0.04690368 [kcal/mol]      -0.19624500 [kJ/mol]
  Total sSAPT0                     -0.18890530 [mEh]      -0.11853987 [kcal/mol]      -0.49597081 [kJ/mol]
  --------------------------------------------------------------------------------------------------------

*** Psi4 exiting successfully. Buy a developer a beer!
