                               Psi4 1.4a2.dev224

  ==> Input File <==

--------------------------------------------------------------------------
#Generated by lconvert.py for sapt job

memory 20 GB

molecule  {
0 1
  C       1.952940   -0.000020    0.000020
  H       2.317650   -0.471620    0.907560
  H       2.317720   -0.550420   -0.861990
  H       2.320030    1.020920   -0.045480
  H       0.867410    0.001600   -0.000090
--
0 1
  O      -1.565090    0.000440   -0.000110
  H      -2.160710    0.752310    0.000380
  H      -2.156250   -0.754940    0.000380
units angstrom
no_reorient
symmetry c1
}

set {
scf_type DF
basis aug-cc-pvdz
freeze_core True
guess SAD
}
energy('sapt2+')
--------------------------------------------------------------------------

  //              Dimer HF             //
    Molecular point group: c1
  Charge       = 0
  Multiplicity = 1
  Basis Set: AUG-CC-PVDZ
    Blend: AUG-CC-PVDZ
  Basis Set: (AUG-CC-PVDZ AUX)
    Blend: AUG-CC-PVDZ-JKFIT
  @DF-RHF Final Energy:  -116.24051291535093
    Total Energy =                       -116.2405129153509336
  //            Monomer A HF           //
    Molecular point group: c1
  Multiplicity = 1
  Basis Set: AUG-CC-PVDZ
    Blend: AUG-CC-PVDZ
  Basis Set: (AUG-CC-PVDZ AUX)
    Blend: AUG-CC-PVDZ-JKFIT
  @DF-RHF Final Energy:   -40.19968788033024
    Total Energy =                        -40.1996878803302309
  //            Monomer B HF           //
    Molecular point group: c1

    Geometry (in Angstrom), charge = 0, multiplicity = 1:

       Center              X                  Y                   Z               Mass
    ------------   -----------------  -----------------  -----------------  -----------------
      Gh(C)           1.896095803070    -0.000156036573     0.000042134322    12.000000000000
      Gh(H)           2.260805803070    -0.471756036573     0.907582134322     1.007825032230
      Gh(H)           2.260875803070    -0.550556036573    -0.861967865678     1.007825032230
      Gh(H)           2.263185803070     1.020783963427    -0.045457865678     1.007825032230
      Gh(H)           0.810565803070     0.001463963427    -0.000067865678     1.007825032230
         O           -1.621934196930     0.000303963427    -0.000087865678    15.994914619570
         H           -2.217554196930     0.752173963427     0.000402134322     1.007825032230
         H           -2.213094196930    -0.755076036573     0.000402134322     1.007825032230

  Charge       = 0
  Multiplicity = 1
  Basis Set: AUG-CC-PVDZ
    Blend: AUG-CC-PVDZ
  Basis Set: (AUG-CC-PVDZ AUX)
    Blend: AUG-CC-PVDZ-JKFIT

    Orbital Energies [Eh]
    ---------------------

    Doubly Occupied:

       1A    -20.577997     2A     -1.356320     3A     -0.716369
       4A     -0.587073     5A     -0.509461

  @DF-RHF Final Energy:   -76.04141717419694

   => Energetics <=

    Nuclear Repulsion Energy =              9.1780336233865381
    One-Electron Energy =                -122.9444634283901365
    Two-Electron Energy =                  37.7250126308066669
    Total Energy =                        -76.0414171741969369

  Dipole Moment: [D]
     X:    -2.0152      Y:    -0.0059      Z:     0.0017     Total:     2.0152

    SAPT Results
  --------------------------------------------------------------------------------------------------------
    Electrostatics                 -1.89797382 [mEh]      -1.19099655 [kcal/mol]      -4.98312958 [kJ/mol]
      Elst10,r                     -1.79533416 [mEh]      -1.12658920 [kcal/mol]      -4.71364920 [kJ/mol]
      Elst12,r                     -0.10263966 [mEh]      -0.06440736 [kcal/mol]      -0.26948038 [kJ/mol]

    Exchange                        3.50745815 [mEh]       2.20096322 [kcal/mol]       9.20883011 [kJ/mol]
      Exch10                        3.07788119 [mEh]       1.93139960 [kcal/mol]       8.08097594 [kJ/mol]
      Exch10(S^2)                   3.07013867 [mEh]       1.92654110 [kcal/mol]       8.06064796 [kJ/mol]
      Exch11(S^2)                  -0.03611374 [mEh]      -0.02266172 [kcal/mol]      -0.09481662 [kJ/mol]
      Exch12(S^2)                   0.46569071 [mEh]       0.29222533 [kcal/mol]       1.22267080 [kJ/mol]

    Induction                      -0.71743885 [mEh]      -0.45019968 [kcal/mol]      -1.88363545 [kJ/mol]
      Ind20,r                      -0.87478451 [mEh]      -0.54893557 [kcal/mol]      -2.29674642 [kJ/mol]
      Ind22                        -0.05614619 [mEh]      -0.03523227 [kcal/mol]      -0.14741180 [kJ/mol]
      Exch-Ind20,r                  0.45362848 [mEh]       0.28465617 [kcal/mol]       1.19100141 [kJ/mol]
      Exch-Ind22                    0.02911518 [mEh]       0.01827005 [kcal/mol]       0.07644190 [kJ/mol]
      delta HF,r (2)               -0.26925181 [mEh]      -0.16895806 [kcal/mol]      -0.70692053 [kJ/mol]

    Dispersion                     -1.70115301 [mEh]      -1.06748963 [kcal/mol]      -4.46637662 [kJ/mol]
      Disp20                       -1.71045468 [mEh]      -1.07332652 [kcal/mol]      -4.49079814 [kJ/mol]
      Disp21                        0.02207492 [mEh]       0.01385222 [kcal/mol]       0.05795768 [kJ/mol]
      Disp22 (SDQ)                 -0.00755179 [mEh]      -0.00473882 [kcal/mol]      -0.01982721 [kJ/mol]
      Disp22 (T)                   -0.20422607 [mEh]      -0.12815379 [kcal/mol]      -0.53619547 [kJ/mol]
      Est. Disp22 (T)              -0.23165690 [mEh]      -0.14536690 [kcal/mol]      -0.60821512 [kJ/mol]
      Exch-Disp20                   0.22643544 [mEh]       0.14209038 [kcal/mol]       0.59450616 [kJ/mol]

  Total HF                          0.59213918 [mEh]       0.37157294 [kcal/mol]       1.55466119 [kJ/mol]
  Total SAPT0                      -0.89188007 [mEh]      -0.55966319 [kcal/mol]      -2.34163079 [kJ/mol]
  Total SAPT2                      -0.59197376 [mEh]      -0.37146914 [kcal/mol]      -1.55422690 [kJ/mol]
  Total SAPT2+                     -0.80910753 [mEh]      -0.50772264 [kcal/mol]      -2.12431154 [kJ/mol]

  Special recipe for scaled SAPT0 (see Manual):
    Electrostatics sSAPT0          -1.79533416 [mEh]      -1.12658920 [kcal/mol]      -4.71364920 [kJ/mol]
    Exchange sSAPT0                 3.07788119 [mEh]       1.93139960 [kcal/mol]       8.08097594 [kJ/mol]
    Induction sSAPT0               -0.68696719 [mEh]      -0.43107842 [kcal/mol]      -1.80363212 [kJ/mol]
    Dispersion sSAPT0              -1.48230179 [mEh]      -0.93015842 [kcal/mol]      -3.89178281 [kJ/mol]
  Total sSAPT0                     -0.88672196 [mEh]      -0.55642643 [kcal/mol]      -2.32808819 [kJ/mol]
  --------------------------------------------------------------------------------------------------------

*** Psi4 exiting successfully. Buy a developer a beer!
