                               Psi4 1.4a2.dev224

  ==> Input File <==

--------------------------------------------------------------------------
#Generated by lconvert.py for sapt job

memory 20 GB

molecule  {
0 1
  C       1.952940   -0.000020    0.000020
  H       2.317650   -0.471620    0.907560
  H       2.317720   -0.550420   -0.861990
  H       2.320030    1.020920   -0.045480
  H       0.867410    0.001600   -0.000090
--
0 1
  O      -4.267870   -0.000840   -0.000130
  H      -4.863480    0.751030    0.000360
  H      -4.859020   -0.756220    0.000360
units angstrom
no_reorient
symmetry c1
}

set {
scf_type DF
basis aug-cc-pvdz
freeze_core True
guess SAD
}
energy('sapt2+')
--------------------------------------------------------------------------

  //              Dimer HF             //
    Molecular point group: c1
  Charge       = 0
  Multiplicity = 1
  Basis Set: AUG-CC-PVDZ
    Blend: AUG-CC-PVDZ
  Basis Set: (AUG-CC-PVDZ AUX)
    Blend: AUG-CC-PVDZ-JKFIT
  @DF-RHF Final Energy:  -116.24089329946285
    Total Energy =                       -116.2408932994628543
  //            Monomer A HF           //
    Molecular point group: c1
  Multiplicity = 1
  Basis Set: AUG-CC-PVDZ
    Blend: AUG-CC-PVDZ
  Basis Set: (AUG-CC-PVDZ AUX)
    Blend: AUG-CC-PVDZ-JKFIT
  @DF-RHF Final Energy:   -40.19959621079946
    Total Energy =                        -40.1995962107994629
  //            Monomer B HF           //
    Molecular point group: c1

    Geometry (in Angstrom), charge = 0, multiplicity = 1:

       Center              X                  Y                   Z               Mass
    ------------   -----------------  -----------------  -----------------  -----------------
      Gh(C)           3.326057825646     0.000521174354     0.000052715742    12.000000000000
      Gh(H)           3.690767825646    -0.471078825646     0.907592715742     1.007825032230
      Gh(H)           3.690837825646    -0.549878825646    -0.861957284258     1.007825032230
      Gh(H)           3.693147825646     1.021461174354    -0.045447284258     1.007825032230
      Gh(H)           2.240527825646     0.002141174354    -0.000057284258     1.007825032230
         O           -2.894752174354    -0.000298825646    -0.000097284258    15.994914619570
         H           -3.490362174354     0.751571174354     0.000392715742     1.007825032230
         H           -3.485902174354    -0.755678825646     0.000392715742     1.007825032230

  Charge       = 0
  Multiplicity = 1
  Basis Set: AUG-CC-PVDZ
    Blend: AUG-CC-PVDZ
  Basis Set: (AUG-CC-PVDZ AUX)
    Blend: AUG-CC-PVDZ-JKFIT

    Orbital Energies [Eh]
    ---------------------

    Doubly Occupied:

       1A    -20.578020     2A     -1.356321     3A     -0.716361
       4A     -0.587139     5A     -0.509541

  @DF-RHF Final Energy:   -76.04124166415100

   => Energetics <=

    Nuclear Repulsion Energy =              9.1780905519373892
    One-Electron Energy =                -122.9438996684344545
    Two-Electron Energy =                  37.7245674523460650
    Total Energy =                        -76.0412416641510021

  Dipole Moment: [D]
     X:    -2.0165      Y:    -0.0060      Z:     0.0017     Total:     2.0165

    SAPT Results
  --------------------------------------------------------------------------------------------------------
    Electrostatics                 -0.04332284 [mEh]      -0.02718549 [kcal/mol]      -0.11374409 [kJ/mol]
      Elst10,r                     -0.04576194 [mEh]      -0.02871605 [kcal/mol]      -0.12014795 [kJ/mol]
      Elst12,r                      0.00243910 [mEh]       0.00153056 [kcal/mol]       0.00640386 [kJ/mol]

    Exchange                        0.00020826 [mEh]       0.00013068 [kcal/mol]       0.00054679 [kJ/mol]
      Exch10                        0.00015209 [mEh]       0.00009543 [kcal/mol]       0.00039930 [kJ/mol]
      Exch10(S^2)                   0.00015209 [mEh]       0.00009543 [kcal/mol]       0.00039930 [kJ/mol]
      Exch11(S^2)                  -0.00001294 [mEh]      -0.00000812 [kcal/mol]      -0.00003397 [kJ/mol]
      Exch12(S^2)                   0.00006911 [mEh]       0.00004337 [kcal/mol]       0.00018146 [kJ/mol]

    Induction                      -0.00886665 [mEh]      -0.00556391 [kcal/mol]      -0.02327938 [kJ/mol]
      Ind20,r                      -0.00953884 [mEh]      -0.00598571 [kcal/mol]      -0.02504421 [kJ/mol]
      Ind22                         0.00094875 [mEh]       0.00059535 [kcal/mol]       0.00249094 [kJ/mol]
      Exch-Ind20,r                  0.00000742 [mEh]       0.00000466 [kcal/mol]       0.00001949 [kJ/mol]
      Exch-Ind22                   -0.00000074 [mEh]      -0.00000046 [kcal/mol]      -0.00000194 [kJ/mol]
      delta HF,r (2)               -0.00028325 [mEh]      -0.00017774 [kcal/mol]      -0.00074366 [kJ/mol]

    Dispersion                     -0.03252861 [mEh]      -0.02041201 [kcal/mol]      -0.08540384 [kJ/mol]
      Disp20                       -0.02976794 [mEh]      -0.01867967 [kcal/mol]      -0.07815572 [kJ/mol]
      Disp21                        0.00134320 [mEh]       0.00084287 [kcal/mol]       0.00352658 [kJ/mol]
      Disp22 (SDQ)                  0.00018043 [mEh]       0.00011322 [kcal/mol]       0.00047371 [kJ/mol]
      Disp22 (T)                   -0.00424031 [mEh]      -0.00266083 [kcal/mol]      -0.01113292 [kJ/mol]
      Est. Disp22 (T)              -0.00430450 [mEh]      -0.00270112 [kcal/mol]      -0.01130147 [kJ/mol]
      Exch-Disp20                   0.00002021 [mEh]       0.00001268 [kcal/mol]       0.00005306 [kJ/mol]

  Total HF                         -0.05542451 [mEh]      -0.03477941 [kcal/mol]      -0.14551704 [kJ/mol]
  Total SAPT0                      -0.08517224 [mEh]      -0.05344639 [kcal/mol]      -0.22361970 [kJ/mol]
  Total SAPT2                      -0.08172896 [mEh]      -0.05128569 [kcal/mol]      -0.21457935 [kJ/mol]
  Total SAPT2+                     -0.08450983 [mEh]      -0.05303072 [kcal/mol]      -0.22188053 [kJ/mol]

  Special recipe for scaled SAPT0 (see Manual):
    Electrostatics sSAPT0          -0.04576194 [mEh]      -0.02871605 [kcal/mol]      -0.12014795 [kJ/mol]
    Exchange sSAPT0                 0.00015209 [mEh]       0.00009543 [kcal/mol]       0.00039930 [kJ/mol]
    Induction sSAPT0               -0.00981466 [mEh]      -0.00615879 [kcal/mol]      -0.02576838 [kJ/mol]
    Dispersion sSAPT0              -0.02974773 [mEh]      -0.01866698 [kcal/mol]      -0.07810266 [kJ/mol]
  Total sSAPT0                     -0.08517224 [mEh]      -0.05344639 [kcal/mol]      -0.22361970 [kJ/mol]
  --------------------------------------------------------------------------------------------------------

*** Psi4 exiting successfully. Buy a developer a beer!
