                               Psi4 1.4a2.dev224

  ==> Input File <==

--------------------------------------------------------------------------
#Generated by lconvert.py for sapt job

memory 20 GB

molecule  {
0 1
  C       1.952940   -0.000020    0.000020
  H       2.317650   -0.471620    0.907560
  H       2.317720   -0.550420   -0.861990
  H       2.320030    1.020920   -0.045480
  H       0.867410    0.001600   -0.000090
--
0 1
  O      -2.105650    0.000190   -0.000110
  H      -2.701260    0.752060    0.000380
  H      -2.696800   -0.755200    0.000380
units angstrom
no_reorient
symmetry c1
}

set {
scf_type DF
basis aug-cc-pvdz
freeze_core True
guess SAD
}
energy('sapt2+')
--------------------------------------------------------------------------

  //              Dimer HF             //
    Molecular point group: c1
  Charge       = 0
  Multiplicity = 1
  Basis Set: AUG-CC-PVDZ
    Blend: AUG-CC-PVDZ
  Basis Set: (AUG-CC-PVDZ AUX)
    Blend: AUG-CC-PVDZ-JKFIT
  @DF-RHF Final Energy:  -116.24122558523364
    Total Energy =                       -116.2412255852336358
  //            Monomer A HF           //
    Molecular point group: c1
  Multiplicity = 1
  Basis Set: AUG-CC-PVDZ
    Blend: AUG-CC-PVDZ
  Basis Set: (AUG-CC-PVDZ AUX)
    Blend: AUG-CC-PVDZ-JKFIT
  @DF-RHF Final Energy:   -40.19963814982727
    Total Energy =                        -40.1996381498272655
  //            Monomer B HF           //
    Molecular point group: c1

    Geometry (in Angstrom), charge = 0, multiplicity = 1:

       Center              X                  Y                   Z               Mass
    ------------   -----------------  -----------------  -----------------  -----------------
      Gh(C)           2.182089850182    -0.000023472759     0.000042134322    12.000000000000
      Gh(H)           2.546799850182    -0.471623472759     0.907582134322     1.007825032230
      Gh(H)           2.546869850182    -0.550423472759    -0.861967865678     1.007825032230
      Gh(H)           2.549179850182     1.020916527241    -0.045457865678     1.007825032230
      Gh(H)           1.096559850182     0.001596527241    -0.000067865678     1.007825032230
         O           -1.876500149818     0.000186527241    -0.000087865678    15.994914619570
         H           -2.472110149818     0.752056527241     0.000402134322     1.007825032230
         H           -2.467650149818    -0.755203472759     0.000402134322     1.007825032230

  Charge       = 0
  Multiplicity = 1
  Basis Set: AUG-CC-PVDZ
    Blend: AUG-CC-PVDZ
  Basis Set: (AUG-CC-PVDZ AUX)
    Blend: AUG-CC-PVDZ-JKFIT

    Orbital Energies [Eh]
    ---------------------

    Doubly Occupied:

       1A    -20.578030     2A     -1.356348     3A     -0.716394
       4A     -0.587128     5A     -0.509549

  @DF-RHF Final Energy:   -76.04130587593149

   => Energetics <=

    Nuclear Repulsion Energy =              9.1780519873720827
    One-Electron Energy =                -122.9438209699130340
    Two-Electron Energy =                  37.7244631066094627
    Total Energy =                        -76.0413058759314850

  Dipole Moment: [D]
     X:    -2.0183      Y:    -0.0059      Z:     0.0017     Total:     2.0183

    SAPT Results
  --------------------------------------------------------------------------------------------------------
    Electrostatics                 -0.53367297 [mEh]      -0.33488485 [kcal/mol]      -1.40115819 [kJ/mol]
      Elst10,r                     -0.52684148 [mEh]      -0.33059802 [kcal/mol]      -1.38322212 [kJ/mol]
      Elst12,r                     -0.00683149 [mEh]      -0.00428683 [kcal/mol]      -0.01793608 [kJ/mol]

    Exchange                        0.52001084 [mEh]       0.32631173 [kcal/mol]       1.36528827 [kJ/mol]
      Exch10                        0.43808405 [mEh]       0.27490189 [kcal/mol]       1.15018952 [kJ/mol]
      Exch10(S^2)                   0.43790338 [mEh]       0.27478852 [kcal/mol]       1.14971516 [kJ/mol]
      Exch11(S^2)                  -0.01090207 [mEh]      -0.00684115 [kcal/mol]      -0.02862337 [kJ/mol]
      Exch12(S^2)                   0.09282885 [mEh]       0.05825098 [kcal/mol]       0.24372212 [kJ/mol]

    Induction                      -0.19060356 [mEh]      -0.11960554 [kcal/mol]      -0.50042957 [kJ/mol]
      Ind20,r                      -0.20273793 [mEh]      -0.12721997 [kcal/mol]      -0.53228835 [kJ/mol]
      Ind22                         0.00279666 [mEh]       0.00175493 [kcal/mol]       0.00734264 [kJ/mol]
      Exch-Ind20,r                  0.04336347 [mEh]       0.02721099 [kcal/mol]       0.11385078 [kJ/mol]
      Exch-Ind22                   -0.00059818 [mEh]      -0.00037536 [kcal/mol]      -0.00157051 [kJ/mol]
      delta HF,r (2)               -0.03342759 [mEh]      -0.02097613 [kcal/mol]      -0.08776412 [kJ/mol]

    Dispersion                     -0.64250634 [mEh]      -0.40317882 [kcal/mol]      -1.68690016 [kJ/mol]
      Disp20                       -0.59852987 [mEh]      -0.37558316 [kcal/mol]      -1.57143995 [kJ/mol]
      Disp21                        0.00290601 [mEh]       0.00182355 [kcal/mol]       0.00762972 [kJ/mol]
      Disp22 (SDQ)                 -0.00242523 [mEh]      -0.00152186 [kcal/mol]      -0.00636745 [kJ/mol]
      Disp22 (T)                   -0.07533611 [mEh]      -0.04727412 [kcal/mol]      -0.19779493 [kJ/mol]
      Est. Disp22 (T)              -0.08345014 [mEh]      -0.05236575 [kcal/mol]      -0.21909831 [kJ/mol]
      Exch-Disp20                   0.03899289 [mEh]       0.02446841 [kcal/mol]       0.10237582 [kJ/mol]

  Total HF                         -0.28155947 [mEh]      -0.17668124 [kcal/mol]      -0.73923430 [kJ/mol]
  Total SAPT0                      -0.84109645 [mEh]      -0.52779599 [kcal/mol]      -2.20829843 [kJ/mol]
  Total SAPT2                      -0.76380267 [mEh]      -0.47929341 [kcal/mol]      -2.00536362 [kJ/mol]
  Total SAPT2+                     -0.84677203 [mEh]      -0.53135747 [kcal/mol]      -2.22319966 [kJ/mol]

  Special recipe for scaled SAPT0 (see Manual):
    Electrostatics sSAPT0          -0.52684148 [mEh]      -0.33059802 [kcal/mol]      -1.38322212 [kJ/mol]
    Exchange sSAPT0                 0.43808405 [mEh]       0.27490189 [kcal/mol]       1.15018952 [kJ/mol]
    Induction sSAPT0               -0.19274835 [mEh]      -0.12095142 [kcal/mol]      -0.50606072 [kJ/mol]
    Dispersion sSAPT0              -0.55948869 [mEh]      -0.35108445 [kcal/mol]      -1.46893736 [kJ/mol]
  Total sSAPT0                     -0.84099447 [mEh]      -0.52773200 [kcal/mol]      -2.20803068 [kJ/mol]
  --------------------------------------------------------------------------------------------------------

*** Psi4 exiting successfully. Buy a developer a beer!
