                               Psi4 1.4a2.dev224

  ==> Input File <==

--------------------------------------------------------------------------
#Generated by lconvert.py for sapt job

memory 20 GB

molecule  {
0 1
  C       1.952940   -0.000020    0.000020
  H       2.317650   -0.471620    0.907560
  H       2.317720   -0.550420   -0.861990
  H       2.320030    1.020920   -0.045480
  H       0.867410    0.001600   -0.000090
--
0 1
  O      -1.024530    0.000700   -0.000100
  H      -1.620150    0.752570    0.000390
  H      -1.615690   -0.754680    0.000390
units angstrom
no_reorient
symmetry c1
}

set {
scf_type DF
basis aug-cc-pvdz
freeze_core True
guess SAD
}
energy('sapt2+')
--------------------------------------------------------------------------

  //              Dimer HF             //
    Molecular point group: c1
  Charge       = 0
  Multiplicity = 1
  Basis Set: AUG-CC-PVDZ
    Blend: AUG-CC-PVDZ
  Basis Set: (AUG-CC-PVDZ AUX)
    Blend: AUG-CC-PVDZ-JKFIT
  @DF-RHF Final Energy:  -116.23288052731510
    Total Energy =                       -116.2328805273151033
  //            Monomer A HF           //
    Molecular point group: c1
  Multiplicity = 1
  Basis Set: AUG-CC-PVDZ
    Blend: AUG-CC-PVDZ
  Basis Set: (AUG-CC-PVDZ AUX)
    Blend: AUG-CC-PVDZ-JKFIT
  @DF-RHF Final Energy:   -40.19972910986301
    Total Energy =                        -40.1997291098630143
  //            Monomer B HF           //
    Molecular point group: c1

    Geometry (in Angstrom), charge = 0, multiplicity = 1:

       Center              X                  Y                   Z               Mass
    ------------   -----------------  -----------------  -----------------  -----------------
      Gh(C)           1.610101163848    -0.000293595042     0.000036843611    12.000000000000
      Gh(H)           1.974811163848    -0.471893595042     0.907576843611     1.007825032230
      Gh(H)           1.974881163848    -0.550693595042    -0.861973156389     1.007825032230
      Gh(H)           1.977191163848     1.020646404958    -0.045463156389     1.007825032230
      Gh(H)           0.524571163848     0.001326404958    -0.000073156389     1.007825032230
         O           -1.367368836152     0.000426404958    -0.000083156389    15.994914619570
         H           -1.962988836152     0.752296404958     0.000406843611     1.007825032230
         H           -1.958528836152    -0.754953595042     0.000406843611     1.007825032230

  Charge       = 0
  Multiplicity = 1
  Basis Set: AUG-CC-PVDZ
    Blend: AUG-CC-PVDZ
  Basis Set: (AUG-CC-PVDZ AUX)
    Blend: AUG-CC-PVDZ-JKFIT

    Orbital Energies [Eh]
    ---------------------

    Doubly Occupied:

       1A    -20.578064     2A     -1.356246     3A     -0.716278
       4A     -0.586957     5A     -0.509295

  @DF-RHF Final Energy:   -76.04164606441321

   => Energetics <=

    Nuclear Repulsion Energy =              9.1780336233865345
    One-Electron Energy =                -122.9456781518427277
    Two-Electron Energy =                  37.7259984640429735
    Total Energy =                        -76.0416460644132144

  Dipole Moment: [D]
     X:    -2.0081      Y:    -0.0059      Z:     0.0017     Total:     2.0081

    SAPT Results
  --------------------------------------------------------------------------------------------------------
    Electrostatics                 -9.29548584 [mEh]      -5.83300543 [kcal/mol]     -24.40529472 [kJ/mol]
      Elst10,r                     -8.80651932 [mEh]      -5.52617431 [kcal/mol]     -23.12151330 [kJ/mol]
      Elst12,r                     -0.48896652 [mEh]      -0.30683112 [kcal/mol]      -1.28378142 [kJ/mol]

    Exchange                       22.68698787 [mEh]      14.23629982 [kcal/mol]      59.56467844 [kJ/mol]
      Exch10                       20.83465277 [mEh]      13.07394199 [kcal/mol]      54.70137330 [kJ/mol]
      Exch10(S^2)                  20.53916671 [mEh]      12.88852169 [kcal/mol]      53.92557477 [kJ/mol]
      Exch11(S^2)                  -0.05621702 [mEh]      -0.03527671 [kcal/mol]      -0.14759777 [kJ/mol]
      Exch12(S^2)                   1.90855212 [mEh]       1.19763454 [kcal/mol]       5.01090290 [kJ/mol]

    Induction                      -3.68116078 [mEh]      -2.30996326 [kcal/mol]      -9.66488629 [kJ/mol]
      Ind20,r                      -6.30320791 [mEh]      -3.95532268 [kcal/mol]     -16.54907009 [kJ/mol]
      Ind22                        -0.60722529 [mEh]      -0.38103962 [kcal/mol]      -1.59426978 [kJ/mol]
      Exch-Ind20,r                  4.77029782 [mEh]       2.99340708 [kcal/mol]      12.52441521 [kJ/mol]
      Exch-Ind22                    0.45955100 [mEh]       0.28837260 [kcal/mol]       1.20655098 [kJ/mol]
      delta HF,r (2)               -2.00057640 [mEh]      -1.25538064 [kcal/mol]      -5.25251261 [kJ/mol]

    Dispersion                     -4.78929094 [mEh]      -3.00532544 [kcal/mol]     -12.57428162 [kJ/mol]
      Disp20                       -5.56520347 [mEh]      -3.49221790 [kcal/mol]     -14.61143970 [kJ/mol]
      Disp21                        0.25845606 [mEh]       0.16218363 [kcal/mol]       0.67857630 [kJ/mol]
      Disp22 (SDQ)                 -0.01979505 [mEh]      -0.01242158 [kcal/mol]      -0.05197189 [kJ/mol]
      Disp22 (T)                   -0.59993404 [mEh]      -0.37646429 [kcal/mol]      -1.57512660 [kJ/mol]
      Est. Disp22 (T)              -0.67606548 [mEh]      -0.42423750 [kcal/mol]      -1.77500968 [kJ/mol]
      Exch-Disp20                   1.21331700 [mEh]       0.76136791 [kcal/mol]       3.18556335 [kJ/mol]

  Total HF                          8.49464696 [mEh]       5.33047144 [kcal/mol]      22.30269252 [kJ/mol]
  Total SAPT0                       4.14276049 [mEh]       2.59962146 [kcal/mol]      10.87681618 [kJ/mol]
  Total SAPT2                       5.35845478 [mEh]       3.36248114 [kcal/mol]      14.06862109 [kJ/mol]
  Total SAPT2+                      4.92105031 [mEh]       3.08800569 [kcal/mol]      12.92021581 [kJ/mol]

  Special recipe for scaled SAPT0 (see Manual):
    Electrostatics sSAPT0          -8.80651932 [mEh]      -5.52617431 [kcal/mol]     -23.12151330 [kJ/mol]
    Exchange sSAPT0                20.83465277 [mEh]      13.07394199 [kcal/mol]      54.70137330 [kJ/mol]
    Induction sSAPT0               -3.32462714 [mEh]      -2.08623503 [kcal/mol]      -8.72880736 [kJ/mol]
    Dispersion sSAPT0              -4.29876346 [mEh]      -2.69751479 [kcal/mol]     -11.28640190 [kJ/mol]
  Total sSAPT0                      4.40474285 [mEh]       2.76401787 [kcal/mol]      11.56465075 [kJ/mol]
  --------------------------------------------------------------------------------------------------------

*** Psi4 exiting successfully. Buy a developer a beer!
