                               Psi4 1.4a2.dev224

  ==> Input File <==

--------------------------------------------------------------------------
#Generated by lconvert.py for sapt job

memory 20 GB

molecule  {
0 1
  C       1.291260   -0.666910   -0.014690
  H       1.586310   -1.228550    0.860100
  H       1.000950   -1.228630   -0.891020
  C       1.291170    0.666930   -0.014690
  H       1.000800    1.228600   -0.891030
  H       1.586160    1.228620    0.860080
--
0 1
  O      -4.566180    0.000030    0.051290
  H      -3.626100    0.000120    0.254660
  H      -4.984230    0.000020    0.914090
units angstrom
no_reorient
symmetry c1
}

set {
scf_type DF
basis aug-cc-pvdz
freeze_core True
guess SAD
}
energy('sapt2+')
--------------------------------------------------------------------------

  //              Dimer HF             //
    Molecular point group: c1
  Charge       = 0
  Multiplicity = 1
  Basis Set: AUG-CC-PVDZ
    Blend: AUG-CC-PVDZ
  Basis Set: (AUG-CC-PVDZ AUX)
    Blend: AUG-CC-PVDZ-JKFIT
  @DF-RHF Final Energy:  -154.08510528977828
    Total Energy =                       -154.0851052897782836
  //            Monomer A HF           //
    Molecular point group: c1
  Multiplicity = 1
  Basis Set: AUG-CC-PVDZ
    Blend: AUG-CC-PVDZ
  Basis Set: (AUG-CC-PVDZ AUX)
    Blend: AUG-CC-PVDZ-JKFIT
  @DF-RHF Final Energy:   -78.04350575028079
    Total Energy =                        -78.0435057502807865
  //            Monomer B HF           //
    Molecular point group: c1

    Geometry (in Angstrom), charge = 0, multiplicity = 1:

       Center              X                  Y                   Z               Mass
    ------------   -----------------  -----------------  -----------------  -----------------
      Gh(C)           2.279697307958    -0.666929574706    -0.049079583240    12.000000000000
      Gh(H)           2.574747307958    -1.228569574706     0.825710416760     1.007825032230
      Gh(H)           1.989387307958    -1.228649574706    -0.925409583240     1.007825032230
      Gh(C)           2.279607307958     0.666910425294    -0.049079583240    12.000000000000
      Gh(H)           1.989237307958     1.228580425294    -0.925419583240     1.007825032230
      Gh(H)           2.574597307958     1.228600425294     0.825690416760     1.007825032230
         O           -3.577742692042     0.000010425294     0.016900416760    15.994914619570
         H           -2.637662692042     0.000100425294     0.220270416760     1.007825032230
         H           -3.995792692042     0.000000425294     0.879700416760     1.007825032230

  Charge       = 0
  Multiplicity = 1
  Basis Set: AUG-CC-PVDZ
    Blend: AUG-CC-PVDZ
  Basis Set: (AUG-CC-PVDZ AUX)
    Blend: AUG-CC-PVDZ-JKFIT

    Orbital Energies [Eh]
    ---------------------

    Doubly Occupied:

       1A    -20.578170     2A     -1.355707     3A     -0.715927
       4A     -0.586777     5A     -0.509441

  @DF-RHF Final Energy:   -76.04116356784775

   => Energetics <=

    Nuclear Repulsion Energy =              9.1675300813138776
    One-Electron Energy =                -122.9253433228848706
    Two-Electron Energy =                  37.7166496737232393
    Total Energy =                        -76.0411635678477609

  Dipole Moment: [D]
     X:     0.8853      Y:     0.0001      Z:     1.8109     Total:     2.0158

    SAPT Results
  --------------------------------------------------------------------------------------------------------
    Electrostatics                 -0.34971671 [mEh]      -0.21945055 [kcal/mol]      -0.91818110 [kJ/mol]
      Elst10,r                     -0.42266986 [mEh]      -0.26522934 [kcal/mol]      -1.10971957 [kJ/mol]
      Elst12,r                      0.07295315 [mEh]       0.04577879 [kcal/mol]       0.19153847 [kJ/mol]

    Exchange                        0.00315113 [mEh]       0.00197736 [kcal/mol]       0.00827328 [kJ/mol]
      Exch10                        0.00300462 [mEh]       0.00188543 [kcal/mol]       0.00788862 [kJ/mol]
      Exch10(S^2)                   0.00300460 [mEh]       0.00188542 [kcal/mol]       0.00788858 [kJ/mol]
      Exch11(S^2)                   0.00010046 [mEh]       0.00006304 [kcal/mol]       0.00026377 [kJ/mol]
      Exch12(S^2)                   0.00004605 [mEh]       0.00002889 [kcal/mol]       0.00012089 [kJ/mol]

    Induction                      -0.01472772 [mEh]      -0.00924178 [kcal/mol]      -0.03866762 [kJ/mol]
      Ind20,r                      -0.01652333 [mEh]      -0.01036855 [kcal/mol]      -0.04338201 [kJ/mol]
      Ind22                         0.00166797 [mEh]       0.00104667 [kcal/mol]       0.00437925 [kJ/mol]
      Exch-Ind20,r                  0.00088447 [mEh]       0.00055501 [kcal/mol]       0.00232217 [kJ/mol]
      Exch-Ind22                   -0.00008928 [mEh]      -0.00005603 [kcal/mol]      -0.00023441 [kJ/mol]
      delta HF,r (2)               -0.00066754 [mEh]      -0.00041889 [kcal/mol]      -0.00175262 [kJ/mol]

    Dispersion                     -0.08179707 [mEh]      -0.05132844 [kcal/mol]      -0.21475817 [kJ/mol]
      Disp20                       -0.07907462 [mEh]      -0.04962008 [kcal/mol]      -0.20761040 [kJ/mol]
      Disp21                        0.00679849 [mEh]       0.00426612 [kcal/mol]       0.01784944 [kJ/mol]
      Disp22 (SDQ)                  0.00327530 [mEh]       0.00205528 [kcal/mol]       0.00859930 [kJ/mol]
      Disp22 (T)                   -0.01271406 [mEh]      -0.00797819 [kcal/mol]      -0.03338075 [kJ/mol]
      Est. Disp22 (T)              -0.01318545 [mEh]      -0.00827399 [kcal/mol]      -0.03461839 [kJ/mol]
      Exch-Disp20                   0.00038921 [mEh]       0.00024424 [kcal/mol]       0.00102188 [kJ/mol]

  Total HF                         -0.43597165 [mEh]      -0.27357634 [kcal/mol]      -1.14464341 [kJ/mol]
  Total SAPT0                      -0.51465706 [mEh]      -0.32295218 [kcal/mol]      -1.35123192 [kJ/mol]
  Total SAPT2                      -0.43997871 [mEh]      -0.27609081 [kcal/mol]      -1.15516395 [kJ/mol]
  Total SAPT2+                     -0.44309037 [mEh]      -0.27804341 [kcal/mol]      -1.16333361 [kJ/mol]

  Special recipe for scaled SAPT0 (see Manual):
    Electrostatics sSAPT0          -0.42266986 [mEh]      -0.26522934 [kcal/mol]      -1.10971957 [kJ/mol]
    Exchange sSAPT0                 0.00300462 [mEh]       0.00188543 [kcal/mol]       0.00788862 [kJ/mol]
    Induction sSAPT0               -0.01630640 [mEh]      -0.01023242 [kcal/mol]      -0.04281245 [kJ/mol]
    Dispersion sSAPT0              -0.07868541 [mEh]      -0.04937584 [kcal/mol]      -0.20658851 [kJ/mol]
  Total sSAPT0                     -0.51465706 [mEh]      -0.32295218 [kcal/mol]      -1.35123192 [kJ/mol]
  --------------------------------------------------------------------------------------------------------

*** Psi4 exiting successfully. Buy a developer a beer!
