                               Psi4 1.4a2.dev224

  ==> Input File <==

--------------------------------------------------------------------------
#Generated by lconvert.py for sapt job

memory 20 GB

molecule  {
0 1
  C       1.291260   -0.666910   -0.014690
  H       1.586310   -1.228550    0.860100
  H       1.000950   -1.228630   -0.891020
  C       1.291170    0.666930   -0.014690
  H       1.000800    1.228600   -0.891030
  H       1.586160    1.228620    0.860080
--
0 1
  O      -1.584240   -0.000040   -0.112110
  H      -0.644170    0.000050    0.091270
  H      -2.002300   -0.000050    0.750690
units angstrom
no_reorient
symmetry c1
}

set {
scf_type DF
basis aug-cc-pvdz
freeze_core True
guess SAD
}
energy('sapt2+')
--------------------------------------------------------------------------

  //              Dimer HF             //
    Molecular point group: c1
  Charge       = 0
  Multiplicity = 1
  Basis Set: AUG-CC-PVDZ
    Blend: AUG-CC-PVDZ
  Basis Set: (AUG-CC-PVDZ AUX)
    Blend: AUG-CC-PVDZ-JKFIT
  @DF-RHF Final Energy:  -154.07855126006683
    Total Energy =                       -154.0785512600668312
  //            Monomer A HF           //
    Molecular point group: c1
  Multiplicity = 1
  Basis Set: AUG-CC-PVDZ
    Blend: AUG-CC-PVDZ
  Basis Set: (AUG-CC-PVDZ AUX)
    Blend: AUG-CC-PVDZ-JKFIT
  @DF-RHF Final Energy:   -78.04388055013408
    Total Energy =                        -78.0438805501340767
  //            Monomer B HF           //
    Molecular point group: c1

    Geometry (in Angstrom), charge = 0, multiplicity = 1:

       Center              X                  Y                   Z               Mass
    ------------   -----------------  -----------------  -----------------  -----------------
      Gh(C)           1.113228414581    -0.666902192245     0.014838683387    12.000000000000
      Gh(H)           1.408278414581    -1.228542192245     0.889628683387     1.007825032230
      Gh(H)           0.822918414581    -1.228622192245    -0.861491316613     1.007825032230
      Gh(C)           1.113138414581     0.666937807755     0.014838683387    12.000000000000
      Gh(H)           0.822768414581     1.228607807755    -0.861501316613     1.007825032230
      Gh(H)           1.408128414581     1.228627807755     0.889608683387     1.007825032230
         O           -1.762271585419    -0.000032192245    -0.082581316613    15.994914619570
         H           -0.822201585419     0.000057807755     0.120798683387     1.007825032230
         H           -2.180331585419    -0.000042192245     0.780218683387     1.007825032230

  Charge       = 0
  Multiplicity = 1
  Basis Set: AUG-CC-PVDZ
    Blend: AUG-CC-PVDZ
  Basis Set: (AUG-CC-PVDZ AUX)
    Blend: AUG-CC-PVDZ-JKFIT

    Orbital Energies [Eh]
    ---------------------

    Doubly Occupied:

       1A    -20.578135     2A     -1.355622     3A     -0.715837
       4A     -0.586598     5A     -0.509301

  @DF-RHF Final Energy:   -76.04141194627242

   => Energetics <=

    Nuclear Repulsion Energy =              9.1675460637464283
    One-Electron Energy =                -122.9269311205699751
    Two-Electron Energy =                  37.7179731105511351
    Total Energy =                        -76.0414119462724045

  Dipole Moment: [D]
     X:     0.8857      Y:     0.0001      Z:     1.8096     Total:     2.0147

    SAPT Results
  --------------------------------------------------------------------------------------------------------
    Electrostatics                -14.75874578 [mEh]      -9.26125280 [kcal/mol]     -38.74908172 [kJ/mol]
      Elst10,r                    -15.90734075 [mEh]      -9.98200702 [kcal/mol]     -41.76471739 [kJ/mol]
      Elst12,r                      1.14859497 [mEh]       0.72075422 [kcal/mol]       3.01563567 [kJ/mol]

    Exchange                       31.10498559 [mEh]      19.51867314 [kcal/mol]      81.66612843 [kJ/mol]
      Exch10                       29.93631983 [mEh]      18.78532430 [kcal/mol]      78.59779689 [kJ/mol]
      Exch10(S^2)                  29.34508234 [mEh]      18.41431718 [kcal/mol]      77.04550308 [kJ/mol]
      Exch11(S^2)                   0.79117064 [mEh]       0.49646707 [kcal/mol]       2.07721823 [kJ/mol]
      Exch12(S^2)                   0.37749512 [mEh]       0.23688177 [kcal/mol]       0.99111331 [kJ/mol]

    Induction                      -7.34673855 [mEh]      -4.61014804 [kcal/mol]     -19.28885941 [kJ/mol]
      Ind20,r                     -14.70589050 [mEh]      -9.22808561 [kcal/mol]     -38.61031019 [kJ/mol]
      Ind22                        -0.22316449 [mEh]      -0.14003783 [kcal/mol]      -0.58591829 [kJ/mol]
      Exch-Ind20,r                 10.81823804 [mEh]       6.78854686 [kcal/mol]      28.40328005 [kJ/mol]
      Exch-Ind22                    0.16416868 [mEh]       0.10301740 [kcal/mol]       0.43102480 [kJ/mol]
      delta HF,r (2)               -3.40009027 [mEh]      -2.13358886 [kcal/mol]      -8.92693579 [kJ/mol]

    Dispersion                     -7.19346257 [mEh]      -4.51396591 [kcal/mol]     -18.88643336 [kJ/mol]
      Disp20                       -8.95447759 [mEh]      -5.61901952 [kcal/mol]     -23.50997768 [kJ/mol]
      Disp21                        0.68694422 [mEh]       0.43106400 [kcal/mol]       1.80357179 [kJ/mol]
      Disp22 (SDQ)                  0.36579344 [mEh]       0.22953885 [kcal/mol]       0.96039055 [kJ/mol]
      Disp22 (T)                   -1.14757385 [mEh]      -0.72011346 [kcal/mol]      -3.01295472 [kJ/mol]
      Est. Disp22 (T)              -1.26719937 [mEh]      -0.79517961 [kcal/mol]      -3.32703150 [kJ/mol]
      Exch-Disp20                   1.97547675 [mEh]       1.23963037 [kcal/mol]       5.18661348 [kJ/mol]

  Total HF                          6.74123634 [mEh]       4.23018967 [kcal/mol]      17.69911357 [kJ/mol]
  Total SAPT0                      -0.23776451 [mEh]      -0.14919948 [kcal/mol]      -0.62425063 [kJ/mol]
  Total SAPT2                       2.02050041 [mEh]       1.26788315 [kcal/mol]       5.30482309 [kJ/mol]
  Total SAPT2+                      1.80603869 [mEh]       1.13330639 [kcal/mol]       4.74175393 [kJ/mol]

  Special recipe for scaled SAPT0 (see Manual):
    Electrostatics sSAPT0         -15.90734075 [mEh]      -9.98200702 [kcal/mol]     -41.76471739 [kJ/mol]
    Exchange sSAPT0                29.93631983 [mEh]      18.78532430 [kcal/mol]      78.59779689 [kJ/mol]
    Induction sSAPT0               -6.62059027 [mEh]      -4.15448312 [kcal/mol]     -17.38235736 [kJ/mol]
    Dispersion sSAPT0              -6.85717471 [mEh]      -4.30294209 [kcal/mol]     -18.00350972 [kJ/mol]
  Total sSAPT0                      0.55121410 [mEh]       0.34589207 [kcal/mol]       1.44721241 [kJ/mol]
  --------------------------------------------------------------------------------------------------------

*** Psi4 exiting successfully. Buy a developer a beer!
