                               Psi4 1.4a2.dev224

  ==> Input File <==

--------------------------------------------------------------------------
#Generated by lconvert.py for sapt job

memory 20 GB

molecule  {
0 1
  C       1.291260   -0.666910   -0.014690
  H       1.586310   -1.228550    0.860100
  H       1.000950   -1.228630   -0.891020
  C       1.291170    0.666930   -0.014690
  H       1.000800    1.228600   -0.891030
  H       1.586160    1.228620    0.860080
--
0 1
  O      -2.928930   -0.000010   -0.038430
  H      -1.988850    0.000090    0.164950
  H      -3.346980   -0.000020    0.824370
units angstrom
no_reorient
symmetry c1
}

set {
scf_type DF
basis aug-cc-pvdz
freeze_core True
guess SAD
}
energy('sapt2+')
--------------------------------------------------------------------------

  //              Dimer HF             //
    Molecular point group: c1
  Charge       = 0
  Multiplicity = 1
  Basis Set: AUG-CC-PVDZ
    Blend: AUG-CC-PVDZ
  Basis Set: (AUG-CC-PVDZ AUX)
    Blend: AUG-CC-PVDZ-JKFIT
  @DF-RHF Final Energy:  -154.08646160035923
    Total Energy =                       -154.0864616003592289
  //            Monomer A HF           //
    Molecular point group: c1
  Multiplicity = 1
  Basis Set: AUG-CC-PVDZ
    Blend: AUG-CC-PVDZ
  Basis Set: (AUG-CC-PVDZ AUX)
    Blend: AUG-CC-PVDZ-JKFIT
  @DF-RHF Final Energy:   -78.04358718519083
    Total Energy =                        -78.0435871851908303
  //            Monomer B HF           //
    Molecular point group: c1

    Geometry (in Angstrom), charge = 0, multiplicity = 1:

       Center              X                  Y                   Z               Mass
    ------------   -----------------  -----------------  -----------------  -----------------
      Gh(C)           1.639241124250    -0.666914146479    -0.013983311797    12.000000000000
      Gh(H)           1.934291124250    -1.228554146479     0.860806688203     1.007825032230
      Gh(H)           1.348931124250    -1.228634146479    -0.890313311797     1.007825032230
      Gh(C)           1.639151124250     0.666925853521    -0.013983311797    12.000000000000
      Gh(H)           1.348781124250     1.228595853521    -0.890323311797     1.007825032230
      Gh(H)           1.934141124250     1.228615853521     0.860786688203     1.007825032230
         O           -2.580948875750    -0.000014146479    -0.037723311797    15.994914619570
         H           -1.640868875750     0.000085853521     0.165656688203     1.007825032230
         H           -2.998998875750    -0.000024146479     0.825076688203     1.007825032230

  Charge       = 0
  Multiplicity = 1
  Basis Set: AUG-CC-PVDZ
    Blend: AUG-CC-PVDZ
  Basis Set: (AUG-CC-PVDZ AUX)
    Blend: AUG-CC-PVDZ-JKFIT

    Orbital Energies [Eh]
    ---------------------

    Doubly Occupied:

       1A    -20.578172     2A     -1.355711     3A     -0.715927
       4A     -0.586770     5A     -0.509437

  @DF-RHF Final Energy:   -76.04118828105410

   => Energetics <=

    Nuclear Repulsion Energy =              9.1675214146218806
    One-Electron Energy =                -122.9253825155340536
    Two-Electron Energy =                  37.7166728198580756
    Total Energy =                        -76.0411882810541044

  Dipole Moment: [D]
     X:     0.8856      Y:     0.0002      Z:     1.8114     Total:     2.0163

    SAPT Results
  --------------------------------------------------------------------------------------------------------
    Electrostatics                 -1.60105802 [mEh]      -1.00467908 [kcal/mol]      -4.20357726 [kJ/mol]
      Elst10,r                     -1.90894587 [mEh]      -1.19788162 [kcal/mol]      -5.01193669 [kJ/mol]
      Elst12,r                      0.30788785 [mEh]       0.19320254 [kcal/mol]       0.80835943 [kJ/mol]

    Exchange                        0.53053446 [mEh]       0.33291540 [kcal/mol]       1.39291802 [kJ/mol]
      Exch10                        0.50395888 [mEh]       0.31623897 [kcal/mol]       1.32314386 [kJ/mol]
      Exch10(S^2)                   0.50368293 [mEh]       0.31606581 [kcal/mol]       1.32241934 [kJ/mol]
      Exch11(S^2)                   0.01908138 [mEh]       0.01197375 [kcal/mol]       0.05009817 [kJ/mol]
      Exch12(S^2)                   0.00749419 [mEh]       0.00470268 [kcal/mol]       0.01967600 [kJ/mol]

    Induction                      -0.27019889 [mEh]      -0.16955236 [kcal/mol]      -0.70940709 [kJ/mol]
      Ind20,r                      -0.36831254 [mEh]      -0.23111961 [kcal/mol]      -0.96700445 [kJ/mol]
      Ind22                         0.01872715 [mEh]       0.01175146 [kcal/mol]       0.04916813 [kJ/mol]
      Exch-Ind20,r                  0.15299034 [mEh]       0.09600289 [kcal/mol]       0.40167609 [kJ/mol]
      Exch-Ind22                   -0.00777892 [mEh]      -0.00488135 [kcal/mol]      -0.02042355 [kJ/mol]
      delta HF,r (2)               -0.06582492 [mEh]      -0.04130576 [kcal/mol]      -0.17282331 [kJ/mol]

    Dispersion                     -0.76163735 [mEh]      -0.47793465 [kcal/mol]      -1.99967858 [kJ/mol]
      Disp20                       -0.75687460 [mEh]      -0.47494598 [kcal/mol]      -1.98717399 [kJ/mol]
      Disp21                        0.03671364 [mEh]       0.02303816 [kcal/mol]       0.09639164 [kJ/mol]
      Disp22 (SDQ)                  0.03530553 [mEh]       0.02215455 [kcal/mol]       0.09269466 [kJ/mol]
      Disp22 (T)                   -0.11234687 [mEh]      -0.07049873 [kcal/mol]      -0.29496667 [kJ/mol]
      Est. Disp22 (T)              -0.12430731 [mEh]      -0.07800402 [kcal/mol]      -0.32636880 [kJ/mol]
      Exch-Disp20                   0.04752540 [mEh]       0.02982264 [kcal/mol]       0.12477792 [kJ/mol]

  Total HF                         -1.68613411 [mEh]      -1.05806513 [kcal/mol]      -4.42694451 [kJ/mol]
  Total SAPT0                      -2.39548332 [mEh]      -1.50318848 [kcal/mol]      -6.28934059 [kJ/mol]
  Total SAPT2                      -2.05007166 [mEh]      -1.28643939 [kcal/mol]      -5.38246241 [kJ/mol]
  Total SAPT2+                     -2.10235981 [mEh]      -1.31925070 [kcal/mol]      -5.51974491 [kJ/mol]

  Special recipe for scaled SAPT0 (see Manual):
    Electrostatics sSAPT0          -1.90894587 [mEh]      -1.19788162 [kcal/mol]      -5.01193669 [kJ/mol]
    Exchange sSAPT0                 0.50395888 [mEh]       0.31623897 [kcal/mol]       1.32314386 [kJ/mol]
    Induction sSAPT0               -0.28089553 [mEh]      -0.17626460 [kcal/mol]      -0.73749111 [kJ/mol]
    Dispersion sSAPT0              -0.70927105 [mEh]      -0.44507430 [kcal/mol]      -1.86219088 [kJ/mol]
  Total sSAPT0                     -2.39515356 [mEh]      -1.50298155 [kcal/mol]      -6.28847482 [kJ/mol]
  --------------------------------------------------------------------------------------------------------

*** Psi4 exiting successfully. Buy a developer a beer!
