                               Psi4 1.4a2.dev224

  ==> Input File <==

--------------------------------------------------------------------------
#Generated by lconvert.py for sapt job

memory 20 GB

molecule  {
0 1
  C       1.291260   -0.666910   -0.014690
  H       1.586310   -1.228550    0.860100
  H       1.000950   -1.228630   -0.891020
  C       1.291170    0.666930   -0.014690
  H       1.000800    1.228600   -0.891030
  H       1.586160    1.228620    0.860080
--
0 1
  O      -3.747550    0.000010    0.006430
  H      -2.807480    0.000100    0.209810
  H      -4.165610   -0.000000    0.869230
units angstrom
no_reorient
symmetry c1
}

set {
scf_type DF
basis aug-cc-pvdz
freeze_core True
guess SAD
}
energy('sapt2+')
--------------------------------------------------------------------------

  //              Dimer HF             //
    Molecular point group: c1
  Charge       = 0
  Multiplicity = 1
  Basis Set: AUG-CC-PVDZ
    Blend: AUG-CC-PVDZ
  Basis Set: (AUG-CC-PVDZ AUX)
    Blend: AUG-CC-PVDZ-JKFIT
  @DF-RHF Final Energy:  -154.08555875781974
    Total Energy =                       -154.0855587578197401
  //            Monomer A HF           //
    Molecular point group: c1
  Multiplicity = 1
  Basis Set: AUG-CC-PVDZ
    Blend: AUG-CC-PVDZ
  Basis Set: (AUG-CC-PVDZ AUX)
    Blend: AUG-CC-PVDZ-JKFIT
  @DF-RHF Final Energy:   -78.04353007342752
    Total Energy =                        -78.0435300734275188
  //            Monomer B HF           //
    Molecular point group: c1

    Geometry (in Angstrom), charge = 0, multiplicity = 1:

       Center              X                  Y                   Z               Mass
    ------------   -----------------  -----------------  -----------------  -----------------
      Gh(C)           1.959467698000    -0.666921751145    -0.031531556965    12.000000000000
      Gh(H)           2.254517698000    -1.228561751145     0.843258443035     1.007825032230
      Gh(H)           1.669157698000    -1.228641751145    -0.907861556965     1.007825032230
      Gh(C)           1.959377698000     0.666918248855    -0.031531556965    12.000000000000
      Gh(H)           1.669007698000     1.228588248855    -0.907871556965     1.007825032230
      Gh(H)           2.254367698000     1.228608248855     0.843238443035     1.007825032230
         O           -3.079342302000    -0.000001751145    -0.010411556965    15.994914619570
         H           -2.139272302000     0.000088248855     0.192968443035     1.007825032230
         H           -3.497402302000    -0.000011751145     0.852388443035     1.007825032230

  Charge       = 0
  Multiplicity = 1
  Basis Set: AUG-CC-PVDZ
    Blend: AUG-CC-PVDZ
  Basis Set: (AUG-CC-PVDZ AUX)
    Blend: AUG-CC-PVDZ-JKFIT

    Orbital Energies [Eh]
    ---------------------

    Doubly Occupied:

       1A    -20.578174     2A     -1.355715     3A     -0.715933
       4A     -0.586779     5A     -0.509444

  @DF-RHF Final Energy:   -76.04117147497554

   => Energetics <=

    Nuclear Repulsion Energy =              9.1675460637464283
    One-Electron Energy =                -122.9253455152897487
    Two-Electron Energy =                  37.7166279765677785
    Total Energy =                        -76.0411714749755419

  Dipole Moment: [D]
     X:     0.8857      Y:     0.0001      Z:     1.8112     Total:     2.0162

    SAPT Results
  --------------------------------------------------------------------------------------------------------
    Electrostatics                 -0.69434161 [mEh]      -0.43570594 [kcal/mol]      -1.82299366 [kJ/mol]
      Elst10,r                     -0.83818169 [mEh]      -0.52596695 [kcal/mol]      -2.20064573 [kJ/mol]
      Elst12,r                      0.14384008 [mEh]       0.09026101 [kcal/mol]       0.37765207 [kJ/mol]

    Exchange                        0.04124329 [mEh]       0.02588055 [kcal/mol]       0.10828424 [kJ/mol]
      Exch10                        0.03920105 [mEh]       0.02459903 [kcal/mol]       0.10292236 [kJ/mol]
      Exch10(S^2)                   0.03919894 [mEh]       0.02459771 [kcal/mol]       0.10291681 [kJ/mol]
      Exch11(S^2)                   0.00142758 [mEh]       0.00089582 [kcal/mol]       0.00374811 [kJ/mol]
      Exch12(S^2)                   0.00061465 [mEh]       0.00038570 [kcal/mol]       0.00161377 [kJ/mol]

    Induction                      -0.05397961 [mEh]      -0.03387272 [kcal/mol]      -0.14172345 [kJ/mol]
      Ind20,r                      -0.06341144 [mEh]      -0.03979128 [kcal/mol]      -0.16648670 [kJ/mol]
      Ind22                         0.00520044 [mEh]       0.00326333 [kcal/mol]       0.01365375 [kJ/mol]
      Exch-Ind20,r                  0.01159932 [mEh]       0.00727868 [kcal/mol]       0.03045400 [kJ/mol]
      Exch-Ind22                   -0.00095127 [mEh]      -0.00059693 [kcal/mol]      -0.00249757 [kJ/mol]
      delta HF,r (2)               -0.00641666 [mEh]      -0.00402652 [kcal/mol]      -0.01684694 [kJ/mol]

    Dispersion                     -0.22886632 [mEh]      -0.14361578 [kcal/mol]      -0.60088844 [kJ/mol]
      Disp20                       -0.22095227 [mEh]      -0.13864965 [kcal/mol]      -0.58011012 [kJ/mol]
      Disp21                        0.01470967 [mEh]       0.00923046 [kcal/mol]       0.03862024 [kJ/mol]
      Disp22 (SDQ)                  0.00987627 [mEh]       0.00619745 [kcal/mol]       0.02593013 [kJ/mol]
      Disp22 (T)                   -0.03493246 [mEh]      -0.02192045 [kcal/mol]      -0.09171517 [kJ/mol]
      Est. Disp22 (T)              -0.03690332 [mEh]      -0.02315718 [kcal/mol]      -0.09688964 [kJ/mol]
      Exch-Disp20                   0.00440333 [mEh]       0.00276313 [kcal/mol]       0.01156095 [kJ/mol]

  Total HF                         -0.85720942 [mEh]      -0.53790703 [kcal/mol]      -2.25060301 [kJ/mol]
  Total SAPT0                      -1.07375836 [mEh]      -0.67379354 [kcal/mol]      -2.81915218 [kJ/mol]
  Total SAPT2                      -0.92362688 [mEh]      -0.57958462 [kcal/mol]      -2.42498203 [kJ/mol]
  Total SAPT2+                     -0.93594426 [mEh]      -0.58731389 [kcal/mol]      -2.45732131 [kJ/mol]

  Special recipe for scaled SAPT0 (see Manual):
    Electrostatics sSAPT0          -0.83818169 [mEh]      -0.52596695 [kcal/mol]      -2.20064573 [kJ/mol]
    Exchange sSAPT0                 0.03920105 [mEh]       0.02459903 [kcal/mol]       0.10292236 [kJ/mol]
    Induction sSAPT0               -0.05822690 [mEh]      -0.03653793 [kcal/mol]      -0.15287472 [kJ/mol]
    Dispersion sSAPT0              -0.21654823 [mEh]      -0.13588606 [kcal/mol]      -0.56854729 [kJ/mol]
  Total sSAPT0                     -1.07375577 [mEh]      -0.67379192 [kcal/mol]      -2.81914538 [kJ/mol]
  --------------------------------------------------------------------------------------------------------

*** Psi4 exiting successfully. Buy a developer a beer!
