                               Psi4 1.4a2.dev224

  ==> Input File <==

--------------------------------------------------------------------------
#Generated by lconvert.py for sapt job

memory 20 GB

molecule  {
0 1
  C       1.291260   -0.666910   -0.014690
  H       1.586310   -1.228550    0.860100
  H       1.000950   -1.228630   -0.891020
  C       1.291170    0.666930   -0.014690
  H       1.000800    1.228600   -0.891030
  H       1.586160    1.228620    0.860080
--
0 1
  O      -1.986350   -0.000030   -0.090080
  H      -1.046280    0.000060    0.113300
  H      -2.404410   -0.000040    0.772720
units angstrom
no_reorient
symmetry c1
}

set {
scf_type DF
basis aug-cc-pvdz
freeze_core True
guess SAD
}
energy('sapt2+')
--------------------------------------------------------------------------

  //              Dimer HF             //
    Molecular point group: c1
  Charge       = 0
  Multiplicity = 1
  Basis Set: AUG-CC-PVDZ
    Blend: AUG-CC-PVDZ
  Basis Set: (AUG-CC-PVDZ AUX)
    Blend: AUG-CC-PVDZ-JKFIT
  @DF-RHF Final Energy:  -154.08585527020702
    Total Energy =                       -154.0858552702069915
  //            Monomer A HF           //
    Molecular point group: c1
  Multiplicity = 1
  Basis Set: AUG-CC-PVDZ
    Blend: AUG-CC-PVDZ
  Basis Set: (AUG-CC-PVDZ AUX)
    Blend: AUG-CC-PVDZ-JKFIT
  @DF-RHF Final Energy:   -78.04376595875637
    Total Energy =                        -78.0437659587563672
  //            Monomer B HF           //
    Molecular point group: c1

    Geometry (in Angstrom), charge = 0, multiplicity = 1:

       Center              X                  Y                   Z               Mass
    ------------   -----------------  -----------------  -----------------  -----------------
      Gh(C)           1.270525000949    -0.666906104025     0.006221032004    12.000000000000
      Gh(H)           1.565575000949    -1.228546104025     0.881011032004     1.007825032230
      Gh(H)           0.980215000949    -1.228626104025    -0.870108967996     1.007825032230
      Gh(C)           1.270435000949     0.666933895975     0.006221032004    12.000000000000
      Gh(H)           0.980065000949     1.228603895975    -0.870118967996     1.007825032230
      Gh(H)           1.565425000949     1.228623895975     0.880991032004     1.007825032230
         O           -2.007084999051    -0.000026104025    -0.069168967996    15.994914619570
         H           -1.067014999051     0.000063895975     0.134211032004     1.007825032230
         H           -2.425144999051    -0.000036104025     0.793631032004     1.007825032230

  Charge       = 0
  Multiplicity = 1
  Basis Set: AUG-CC-PVDZ
    Blend: AUG-CC-PVDZ
  Basis Set: (AUG-CC-PVDZ AUX)
    Blend: AUG-CC-PVDZ-JKFIT

    Orbital Energies [Eh]
    ---------------------

    Doubly Occupied:

       1A    -20.578133     2A     -1.355666     3A     -0.715884
       4A     -0.586682     5A     -0.509366

  @DF-RHF Final Energy:   -76.04129411088374

   => Energetics <=

    Nuclear Repulsion Energy =              9.1675460637464283
    One-Electron Energy =                -122.9262173745790960
    Two-Electron Energy =                  37.7173771999489205
    Total Energy =                        -76.0412941108837401

  Dipole Moment: [D]
     X:     0.8860      Y:     0.0001      Z:     1.8112     Total:     2.0163

    SAPT Results
  --------------------------------------------------------------------------------------------------------
    Electrostatics                 -6.47916031 [mEh]      -4.06573448 [kcal/mol]     -17.01103304 [kJ/mol]
      Elst10,r                     -7.28987159 [mEh]      -4.57446349 [kcal/mol]     -19.13955523 [kJ/mol]
      Elst12,r                      0.81071128 [mEh]       0.50872901 [kcal/mol]       2.12852218 [kJ/mol]

    Exchange                        9.44421475 [mEh]       5.92633423 [kcal/mol]      24.79578242 [kJ/mol]
      Exch10                        9.03042378 [mEh]       5.66667648 [kcal/mol]      23.70937437 [kJ/mol]
      Exch10(S^2)                   8.96655125 [mEh]       5.62659586 [kcal/mol]      23.54167706 [kJ/mol]
      Exch11(S^2)                   0.29147997 [mEh]       0.18290644 [kcal/mol]       0.76528056 [kJ/mol]
      Exch12(S^2)                   0.12231100 [mEh]       0.07675131 [kcal/mol]       0.32112749 [kJ/mol]

    Induction                      -2.52610009 [mEh]      -1.58515174 [kcal/mol]      -6.63227488 [kJ/mol]
      Ind20,r                      -4.50516593 [mEh]      -2.82703430 [kcal/mol]     -11.82831152 [kJ/mol]
      Ind22                         0.03034635 [mEh]       0.01904262 [kcal/mol]       0.07967434 [kJ/mol]
      Exch-Ind20,r                  3.07214852 [mEh]       1.92780230 [kcal/mol]       8.06592482 [kJ/mol]
      Exch-Ind22                   -0.02069369 [mEh]      -0.01298549 [kcal/mol]      -0.05433128 [kJ/mol]
      delta HF,r (2)               -1.10273534 [mEh]      -0.69197688 [kcal/mol]      -2.89523125 [kJ/mol]

    Dispersion                     -3.57199905 [mEh]      -2.24146325 [kcal/mol]      -9.37828222 [kJ/mol]
      Disp20                       -4.05898819 [mEh]      -2.54705354 [kcal/mol]     -10.65687203 [kJ/mol]
      Disp21                        0.23209505 [mEh]       0.14564184 [kcal/mol]       0.60936547 [kJ/mol]
      Disp22 (SDQ)                  0.18479150 [mEh]       0.11595842 [kcal/mol]       0.48517002 [kJ/mol]
      Disp22 (T)                   -0.54356694 [mEh]      -0.34109340 [kcal/mol]      -1.42713481 [kJ/mol]
      Est. Disp22 (T)              -0.61302962 [mEh]      -0.38468189 [kcal/mol]      -1.60950904 [kJ/mol]
      Exch-Disp20                   0.68313220 [mEh]       0.42867193 [kcal/mol]       1.79356336 [kJ/mol]

  Total HF                         -0.79520057 [mEh]      -0.49899589 [kcal/mol]      -2.08779880 [kJ/mol]
  Total SAPT0                      -4.17105656 [mEh]      -2.61737750 [kcal/mol]     -10.95110748 [kJ/mol]
  Total SAPT2                      -2.93690163 [mEh]      -1.84293360 [kcal/mol]      -7.71083418 [kJ/mol]
  Total SAPT2+                     -3.13304470 [mEh]      -1.96601523 [kcal/mol]      -8.22580773 [kJ/mol]

  Special recipe for scaled SAPT0 (see Manual):
    Electrostatics sSAPT0          -7.28987159 [mEh]      -4.57446349 [kcal/mol]     -19.13955523 [kJ/mol]
    Exchange sSAPT0                 9.03042378 [mEh]       5.66667648 [kcal/mol]      23.70937437 [kJ/mol]
    Induction sSAPT0               -2.46963134 [mEh]      -1.54971706 [kcal/mol]      -6.48401619 [kJ/mol]
    Dispersion sSAPT0              -3.36115303 [mEh]      -2.10915537 [kcal/mol]      -8.82470607 [kJ/mol]
  Total sSAPT0                     -4.09023218 [mEh]      -2.56665944 [kcal/mol]     -10.73890311 [kJ/mol]
  --------------------------------------------------------------------------------------------------------

*** Psi4 exiting successfully. Buy a developer a beer!
