                               Psi4 1.4a2.dev224

  ==> Input File <==

--------------------------------------------------------------------------
#Generated by lconvert.py for sapt job

memory 20 GB

molecule  {
0 1
  C       1.291260   -0.666910   -0.014690
  H       1.586310   -1.228550    0.860100
  H       1.000950   -1.228630   -0.891020
  C       1.291170    0.666930   -0.014690
  H       1.000800    1.228600   -0.891030
  H       1.586160    1.228620    0.860080
--
0 1
  O      -2.119080   -0.000030   -0.082800
  H      -1.179010    0.000070    0.120570
  H      -2.537140   -0.000040    0.780000
units angstrom
no_reorient
symmetry c1
}

set {
scf_type DF
basis aug-cc-pvdz
freeze_core True
guess SAD
}
energy('sapt2+')
--------------------------------------------------------------------------

  //              Dimer HF             //
    Molecular point group: c1
  Charge       = 0
  Multiplicity = 1
  Basis Set: AUG-CC-PVDZ
    Blend: AUG-CC-PVDZ
  Basis Set: (AUG-CC-PVDZ AUX)
    Blend: AUG-CC-PVDZ-JKFIT
  @DF-RHF Final Energy:  -154.08658562663993
    Total Energy =                       -154.0865856266399305
  //            Monomer A HF           //
    Molecular point group: c1
  Multiplicity = 1
  Basis Set: AUG-CC-PVDZ
    Blend: AUG-CC-PVDZ
  Basis Set: (AUG-CC-PVDZ AUX)
    Blend: AUG-CC-PVDZ-JKFIT
  @DF-RHF Final Energy:   -78.04374407959425
    Total Energy =                        -78.0437440795942479
  //            Monomer B HF           //
    Molecular point group: c1

    Geometry (in Angstrom), charge = 0, multiplicity = 1:

       Center              X                  Y                   Z               Mass
    ------------   -----------------  -----------------  -----------------  -----------------
      Gh(C)           1.322446057149    -0.666906322919     0.003373475043    12.000000000000
      Gh(H)           1.617496057149    -1.228546322919     0.878163475043     1.007825032230
      Gh(H)           1.032136057149    -1.228626322919    -0.872956524957     1.007825032230
      Gh(C)           1.322356057149     0.666933677081     0.003373475043    12.000000000000
      Gh(H)           1.031986057149     1.228603677081    -0.872966524957     1.007825032230
      Gh(H)           1.617346057149     1.228623677081     0.878143475043     1.007825032230
         O           -2.087893942851    -0.000026322919    -0.064736524957    15.994914619570
         H           -1.147823942851     0.000073677081     0.138633475043     1.007825032230
         H           -2.505953942851    -0.000036322919     0.798063475043     1.007825032230

  Charge       = 0
  Multiplicity = 1
  Basis Set: AUG-CC-PVDZ
    Blend: AUG-CC-PVDZ
  Basis Set: (AUG-CC-PVDZ AUX)
    Blend: AUG-CC-PVDZ-JKFIT

    Orbital Energies [Eh]
    ---------------------

    Doubly Occupied:

       1A    -20.578137     2A     -1.355677     3A     -0.715896
       4A     -0.586702     5A     -0.509383

  @DF-RHF Final Energy:   -76.04126805709095

   => Energetics <=

    Nuclear Repulsion Energy =              9.1675547213706601
    One-Electron Energy =                -122.9260571551561867
    Two-Electron Energy =                  37.7172343766945772
    Total Energy =                        -76.0412680570909458

  Dipole Moment: [D]
     X:     0.8859      Y:     0.0002      Z:     1.8114     Total:     2.0164

    SAPT Results
  --------------------------------------------------------------------------------------------------------
    Electrostatics                 -5.09715005 [mEh]      -3.19850995 [kcal/mol]     -13.38256562 [kJ/mol]
      Elst10,r                     -5.80507733 [mEh]      -3.64274102 [kcal/mol]     -15.24122844 [kJ/mol]
      Elst12,r                      0.70792728 [mEh]       0.44423108 [kcal/mol]       1.85866282 [kJ/mol]

    Exchange                        6.33199279 [mEh]       3.97338547 [kcal/mol]      16.62464479 [kJ/mol]
      Exch10                        6.04589669 [mEh]       3.79385745 [kcal/mol]      15.87349958 [kJ/mol]
      Exch10(S^2)                   6.01574664 [mEh]       3.77493801 [kcal/mol]      15.79434064 [kJ/mol]
      Exch11(S^2)                   0.20317664 [mEh]       0.12749526 [kcal/mol]       0.53344018 [kJ/mol]
      Exch12(S^2)                   0.08291947 [mEh]       0.05203275 [kcal/mol]       0.21770503 [kJ/mol]

    Induction                      -1.79966166 [mEh]      -1.12930474 [kcal/mol]      -4.72501104 [kJ/mol]
      Ind20,r                      -3.08358733 [mEh]      -1.93498026 [kcal/mol]      -8.09595741 [kJ/mol]
      Ind22                         0.04220387 [mEh]       0.02648333 [kcal/mol]       0.11080624 [kJ/mol]
      Exch-Ind20,r                  2.01337000 [mEh]       1.26340875 [kcal/mol]       5.28610221 [kJ/mol]
      Exch-Ind22                   -0.02755622 [mEh]      -0.01729179 [kcal/mol]      -0.07234884 [kJ/mol]
      delta HF,r (2)               -0.74409199 [mEh]      -0.46692477 [kcal/mol]      -1.95361324 [kJ/mol]

    Dispersion                     -2.85144149 [mEh]      -1.78930655 [kcal/mol]      -7.48645860 [kJ/mol]
      Disp20                       -3.15426236 [mEh]      -1.97932951 [kcal/mol]      -8.28151468 [kJ/mol]
      Disp21                        0.16714149 [mEh]       0.10488287 [kcal/mol]       0.43882993 [kJ/mol]
      Disp22 (SDQ)                  0.14587309 [mEh]       0.09153675 [kcal/mol]       0.38298976 [kJ/mol]
      Disp22 (T)                   -0.43413182 [mEh]      -0.27242183 [kcal/mol]      -1.13981293 [kJ/mol]
      Est. Disp22 (T)              -0.48529854 [mEh]      -0.30452943 [kcal/mol]      -1.27415115 [kJ/mol]
      Exch-Disp20                   0.47510482 [mEh]       0.29813278 [kcal/mol]       1.24738754 [kJ/mol]

  Total HF                         -1.57348995 [mEh]      -0.98737985 [kcal/mol]      -4.13119731 [kJ/mol]
  Total SAPT0                      -4.25264749 [mEh]      -2.66857659 [kcal/mol]     -11.16532444 [kJ/mol]
  Total SAPT2                      -3.24397645 [mEh]      -2.03562596 [kcal/mol]      -8.51705900 [kJ/mol]
  Total SAPT2+                     -3.41626041 [mEh]      -2.14373577 [kcal/mol]      -8.96939046 [kJ/mol]

  Special recipe for scaled SAPT0 (see Manual):
    Electrostatics sSAPT0          -5.80507733 [mEh]      -3.64274102 [kcal/mol]     -15.24122844 [kJ/mol]
    Exchange sSAPT0                 6.04589669 [mEh]       3.79385745 [kcal/mol]      15.87349958 [kJ/mol]
    Induction sSAPT0               -1.78388519 [mEh]      -1.11940485 [kcal/mol]      -4.68358991 [kJ/mol]
    Dispersion sSAPT0              -2.67197820 [mEh]      -1.67669164 [kcal/mol]      -7.01527780 [kJ/mol]
  Total sSAPT0                     -4.21504403 [mEh]      -2.64498006 [kcal/mol]     -11.06659658 [kJ/mol]
  --------------------------------------------------------------------------------------------------------

*** Psi4 exiting successfully. Buy a developer a beer!
