                               Psi4 1.4a2.dev224

  ==> Input File <==

--------------------------------------------------------------------------
#Generated by lconvert.py for sapt job

memory 20 GB

molecule  {
0 1
  C       1.291260   -0.666910   -0.014690
  H       1.586310   -1.228550    0.860100
  H       1.000950   -1.228630   -0.891020
  C       1.291170    0.666930   -0.014690
  H       1.000800    1.228600   -0.891030
  H       1.586160    1.228620    0.860080
--
0 1
  O      -1.311360   -0.000040   -0.127060
  H      -0.371290    0.000050    0.076310
  H      -1.729420   -0.000060    0.735740
units angstrom
no_reorient
symmetry c1
}

set {
scf_type DF
basis aug-cc-pvdz
freeze_core True
guess SAD
}
energy('sapt2+')
--------------------------------------------------------------------------

  //              Dimer HF             //
    Molecular point group: c1
  Charge       = 0
  Multiplicity = 1
  Basis Set: AUG-CC-PVDZ
    Blend: AUG-CC-PVDZ
  Basis Set: (AUG-CC-PVDZ AUX)
    Blend: AUG-CC-PVDZ-JKFIT
  @DF-RHF Final Energy:  -154.06306706590092
    Total Energy =                       -154.0630670659009240
  //            Monomer A HF           //
    Molecular point group: c1
  Multiplicity = 1
  Basis Set: AUG-CC-PVDZ
    Blend: AUG-CC-PVDZ
  Basis Set: (AUG-CC-PVDZ AUX)
    Blend: AUG-CC-PVDZ-JKFIT
  @DF-RHF Final Energy:   -78.04398358947604
    Total Energy =                        -78.0439835894760421
  //            Monomer B HF           //
    Molecular point group: c1

    Geometry (in Angstrom), charge = 0, multiplicity = 1:

       Center              X                  Y                   Z               Mass
    ------------   -----------------  -----------------  -----------------  -----------------
      Gh(C)           1.006483761406    -0.666901973352     0.020687013409    12.000000000000
      Gh(H)           1.301533761406    -1.228541973352     0.895477013409     1.007825032230
      Gh(H)           0.716173761406    -1.228621973352    -0.855642986591     1.007825032230
      Gh(C)           1.006393761406     0.666938026648     0.020687013409    12.000000000000
      Gh(H)           0.716023761406     1.228608026648    -0.855652986591     1.007825032230
      Gh(H)           1.301383761406     1.228628026648     0.895457013409     1.007825032230
         O           -1.596136238594    -0.000031973352    -0.091682986591    15.994914619570
         H           -0.656066238594     0.000058026648     0.111687013409     1.007825032230
         H           -2.014196238594    -0.000051973352     0.771117013409     1.007825032230

  Charge       = 0
  Multiplicity = 1
  Basis Set: AUG-CC-PVDZ
    Blend: AUG-CC-PVDZ
  Basis Set: (AUG-CC-PVDZ AUX)
    Blend: AUG-CC-PVDZ-JKFIT

    Orbital Energies [Eh]
    ---------------------

    Doubly Occupied:

       1A    -20.578131     2A     -1.355572     3A     -0.715783
       4A     -0.586515     5A     -0.509242

  @DF-RHF Final Energy:   -76.04155443543944

   => Energetics <=

    Nuclear Repulsion Energy =              9.1675547251700991
    One-Electron Energy =                -122.9277317085553420
    Two-Electron Energy =                  37.7186225479457988
    Total Energy =                        -76.0415544354394370

  Dipole Moment: [D]
     X:     0.8856      Y:     0.0001      Z:     1.8071     Total:     2.0125

    SAPT Results
  --------------------------------------------------------------------------------------------------------
    Electrostatics                -27.34501424 [mEh]     -17.15925550 [kcal/mol]     -71.79432500 [kJ/mol]
      Elst10,r                    -28.62039971 [mEh]     -17.95957196 [kcal/mol]     -75.14284907 [kJ/mol]
      Elst12,r                      1.27538546 [mEh]       0.80031646 [kcal/mol]       3.34852407 [kJ/mol]

    Exchange                       68.42560032 [mEh]      42.93771245 [kcal/mol]     179.65138889 [kJ/mol]
      Exch10                       66.33290661 [mEh]      41.62452732 [kcal/mol]     174.15702230 [kJ/mol]
      Exch10(S^2)                  63.79297480 [mEh]      40.03069605 [kcal/mol]     167.48843227 [kJ/mol]
      Exch11(S^2)                   1.32514348 [mEh]       0.83154009 [kcal/mol]       3.47916373 [kJ/mol]
      Exch12(S^2)                   0.76755023 [mEh]       0.48164504 [kcal/mol]       2.01520285 [kJ/mol]

    Induction                     -15.50576114 [mEh]      -9.73001201 [kcal/mol]     -40.71037025 [kJ/mol]
      Ind20,r                     -33.44250192 [mEh]     -20.98548678 [kcal/mol]     -87.80327671 [kJ/mol]
      Ind22                        -0.99158036 [mEh]      -0.62222607 [kcal/mol]      -2.60339388 [kJ/mol]
      Exch-Ind20,r                 24.53152261 [mEh]      15.39376284 [kcal/mol]      64.40750373 [kJ/mol]
      Exch-Ind22                    0.72736711 [mEh]       0.45642975 [kcal/mol]       1.90970209 [kJ/mol]
      delta HF,r (2)               -6.33056857 [mEh]      -3.97249175 [kcal/mol]     -16.62090549 [kJ/mol]

    Dispersion                    -11.76503498 [mEh]      -7.38267091 [kcal/mol]     -30.88909507 [kJ/mol]
      Disp20                      -15.56958837 [mEh]      -9.77006421 [kcal/mol]     -40.87794864 [kJ/mol]
      Disp21                        1.49437915 [mEh]       0.93773708 [kcal/mol]       3.92349193 [kJ/mol]
      Disp22 (SDQ)                  0.54713502 [mEh]       0.34333241 [kcal/mol]       1.43650279 [kJ/mol]
      Disp22 (T)                   -1.93201729 [mEh]      -1.21235916 [kcal/mol]      -5.07251071 [kJ/mol]
      Est. Disp22 (T)              -2.09632338 [mEh]      -1.31546278 [kcal/mol]      -5.50389627 [kJ/mol]
      Exch-Disp20                   3.85936260 [mEh]       2.42178660 [kcal/mol]      10.13275512 [kJ/mol]

  Total HF                         22.47095901 [mEh]      14.10073967 [kcal/mol]      58.99749476 [kJ/mol]
  Total SAPT0                      10.76073325 [mEh]       6.75246206 [kcal/mol]      28.25230124 [kJ/mol]
  Total SAPT2                      13.86459917 [mEh]       8.70016733 [kcal/mol]      36.40150011 [kJ/mol]
  Total SAPT2+                     13.80978996 [mEh]       8.66577403 [kcal/mol]      36.25759856 [kJ/mol]

  Special recipe for scaled SAPT0 (see Manual):
    Electrostatics sSAPT0         -28.62039971 [mEh]     -17.95957196 [kcal/mol]     -75.14284907 [kJ/mol]
    Exchange sSAPT0                66.33290661 [mEh]      41.62452732 [kcal/mol]     174.15702230 [kJ/mol]
    Induction sSAPT0              -12.19314911 [mEh]      -7.65131658 [kcal/mol]     -32.01310857 [kJ/mol]
    Dispersion sSAPT0             -11.23064379 [mEh]      -7.04733537 [kcal/mol]     -29.48605120 [kJ/mol]
  Total sSAPT0                     14.28871401 [mEh]       8.96630341 [kcal/mol]      37.51501346 [kJ/mol]
  --------------------------------------------------------------------------------------------------------

*** Psi4 exiting successfully. Buy a developer a beer!
