                               Psi4 1.4a2.dev224

  ==> Input File <==

--------------------------------------------------------------------------
#Generated by lconvert.py for sapt job

memory 20 GB

molecule  {
0 1
  C       1.291260   -0.666910   -0.014690
  H       1.586310   -1.228550    0.860100
  H       1.000950   -1.228630   -0.891020
  C       1.291170    0.666930   -0.014690
  H       1.000800    1.228600   -0.891030
  H       1.586160    1.228620    0.860080
--
0 1
  O      -1.853050   -0.000030   -0.097380
  H      -0.912980    0.000060    0.106000
  H      -2.271110   -0.000050    0.765420
units angstrom
no_reorient
symmetry c1
}

set {
scf_type DF
basis aug-cc-pvdz
freeze_core True
guess SAD
}
energy('sapt2+')
--------------------------------------------------------------------------

  //              Dimer HF             //
    Molecular point group: c1
  Charge       = 0
  Multiplicity = 1
  Basis Set: AUG-CC-PVDZ
    Blend: AUG-CC-PVDZ
  Basis Set: (AUG-CC-PVDZ AUX)
    Blend: AUG-CC-PVDZ-JKFIT
  @DF-RHF Final Energy:  -154.08452192971691
    Total Energy =                       -154.0845219297169137
  //            Monomer A HF           //
    Molecular point group: c1
  Multiplicity = 1
  Basis Set: AUG-CC-PVDZ
    Blend: AUG-CC-PVDZ
  Basis Set: (AUG-CC-PVDZ AUX)
    Blend: AUG-CC-PVDZ-JKFIT
  @DF-RHF Final Energy:   -78.04379017286446
    Total Energy =                        -78.0437901728644476
  //            Monomer B HF           //
    Molecular point group: c1

    Geometry (in Angstrom), charge = 0, multiplicity = 1:

       Center              X                  Y                   Z               Mass
    ------------   -----------------  -----------------  -----------------  -----------------
      Gh(C)           1.218380973287    -0.666905885132     0.009076631418    12.000000000000
      Gh(H)           1.513430973287    -1.228545885132     0.883866631418     1.007825032230
      Gh(H)           0.928070973287    -1.228625885132    -0.867253368582     1.007825032230
      Gh(C)           1.218290973287     0.666934114868     0.009076631418    12.000000000000
      Gh(H)           0.927920973287     1.228604114868    -0.867263368582     1.007825032230
      Gh(H)           1.513280973287     1.228624114868     0.883846631418     1.007825032230
         O           -1.925929026713    -0.000025885132    -0.073613368582    15.994914619570
         H           -0.985859026713     0.000064114868     0.129766631418     1.007825032230
         H           -2.343989026713    -0.000045885132     0.789186631418     1.007825032230

  Charge       = 0
  Multiplicity = 1
  Basis Set: AUG-CC-PVDZ
    Blend: AUG-CC-PVDZ
  Basis Set: (AUG-CC-PVDZ AUX)
    Blend: AUG-CC-PVDZ-JKFIT

    Orbital Energies [Eh]
    ---------------------

    Doubly Occupied:

       1A    -20.578130     2A     -1.355654     3A     -0.715872
       4A     -0.586659     5A     -0.509347

  @DF-RHF Final Energy:   -76.04132565873167

   => Energetics <=

    Nuclear Repulsion Energy =              9.1675460628644032
    One-Electron Energy =                -122.9264192397051403
    Two-Electron Energy =                  37.7175475181090718
    Total Energy =                        -76.0413256587316653

  Dipole Moment: [D]
     X:     0.8859      Y:     0.0001      Z:     1.8109     Total:     2.0160

    SAPT Results
  --------------------------------------------------------------------------------------------------------
    Electrostatics                 -8.38285216 [mEh]      -5.26031915 [kcal/mol]     -22.00917531 [kJ/mol]
      Elst10,r                     -9.30567796 [mEh]      -5.83940108 [kcal/mol]     -24.43205412 [kJ/mol]
      Elst12,r                      0.92282580 [mEh]       0.57908193 [kcal/mol]       2.42287880 [kJ/mol]

    Exchange                       14.06854524 [mEh]       8.82814542 [kcal/mol]      36.93696043 [kJ/mol]
      Exch10                       13.47581251 [mEh]       8.45620001 [kcal/mol]      35.38074086 [kJ/mol]
      Exch10(S^2)                  13.34106922 [mEh]       8.37164733 [kcal/mol]      35.02697242 [kJ/mol]
      Exch11(S^2)                   0.41363812 [mEh]       0.25956184 [kcal/mol]       1.08600673 [kJ/mol]
      Exch12(S^2)                   0.17909461 [mEh]       0.11238357 [kcal/mol]       0.47021284 [kJ/mol]

    Induction                      -3.57703512 [mEh]      -2.24462342 [kcal/mol]      -9.39150441 [kJ/mol]
      Ind20,r                      -6.63704367 [mEh]      -4.16480778 [kcal/mol]     -17.42555575 [kJ/mol]
      Ind22                        -0.00272930 [mEh]      -0.00171266 [kcal/mol]      -0.00716578 [kJ/mol]
      Exch-Ind20,r                  4.68566591 [mEh]       2.94029975 [kcal/mol]      12.30221415 [kJ/mol]
      Exch-Ind22                    0.00192685 [mEh]       0.00120912 [kcal/mol]       0.00505895 [kJ/mol]
      delta HF,r (2)               -1.62485491 [mEh]      -1.01961185 [kcal/mol]      -4.26605597 [kJ/mol]

    Dispersion                     -4.49508136 [mEh]      -2.82070614 [kcal/mol]     -11.80183449 [kJ/mol]
      Disp20                       -5.25373541 [mEh]      -3.29676875 [kcal/mol]     -13.79368043 [kJ/mol]
      Disp21                        0.32836482 [mEh]       0.20605204 [kcal/mol]       0.86212172 [kJ/mol]
      Disp22 (SDQ)                  0.23346748 [mEh]       0.14650306 [kcal/mol]       0.61296880 [kJ/mol]
      Disp22 (T)                   -0.69396601 [mEh]      -0.43547025 [kcal/mol]      -1.82200752 [kJ/mol]
      Est. Disp22 (T)              -0.78161689 [mEh]      -0.49047200 [kcal/mol]      -2.05213487 [kJ/mol]
      Exch-Disp20                   0.97843864 [mEh]       0.61397951 [kcal/mol]       2.56889029 [kJ/mol]

  Total HF                          0.59390188 [mEh]       0.37267906 [kcal/mol]       1.55928917 [kJ/mol]
  Total SAPT0                      -3.68139490 [mEh]      -2.31011017 [kcal/mol]      -9.66550097 [kJ/mol]
  Total SAPT2                      -2.16663882 [mEh]      -1.35958638 [kcal/mol]      -5.68850943 [kJ/mol]
  Total SAPT2+                     -2.38642340 [mEh]      -1.49750329 [kcal/mol]      -6.26555378 [kJ/mol]

  Special recipe for scaled SAPT0 (see Manual):
    Electrostatics sSAPT0          -9.30567796 [mEh]      -5.83940108 [kcal/mol]     -24.43205412 [kJ/mol]
    Exchange sSAPT0                13.47581251 [mEh]       8.45620001 [kcal/mol]      35.38074086 [kJ/mol]
    Induction sSAPT0               -3.43281984 [mEh]      -2.15412697 [kcal/mol]      -9.01286724 [kJ/mol]
    Dispersion sSAPT0              -4.24534999 [mEh]      -2.66399734 [kcal/mol]     -11.14616485 [kJ/mol]
  Total sSAPT0                     -3.50803528 [mEh]      -2.20132537 [kcal/mol]      -9.21034535 [kJ/mol]
  --------------------------------------------------------------------------------------------------------

*** Psi4 exiting successfully. Buy a developer a beer!
