                               Psi4 1.4a2.dev224

  ==> Input File <==

--------------------------------------------------------------------------
#Generated by lconvert.py for sapt job

memory 20 GB

molecule  {
0 1
  C       1.291260   -0.666910   -0.014690
  H       1.586310   -1.228550    0.860100
  H       1.000950   -1.228630   -0.891020
  C       1.291170    0.666930   -0.014690
  H       1.000800    1.228600   -0.891030
  H       1.586160    1.228620    0.860080
--
0 1
  O      -2.383180   -0.000020   -0.068330
  H      -1.443100    0.000070    0.135040
  H      -2.801230   -0.000030    0.794470
units angstrom
no_reorient
symmetry c1
}

set {
scf_type DF
basis aug-cc-pvdz
freeze_core True
guess SAD
}
energy('sapt2+')
--------------------------------------------------------------------------

  //              Dimer HF             //
    Molecular point group: c1
  Charge       = 0
  Multiplicity = 1
  Basis Set: AUG-CC-PVDZ
    Blend: AUG-CC-PVDZ
  Basis Set: (AUG-CC-PVDZ AUX)
    Blend: AUG-CC-PVDZ-JKFIT
  @DF-RHF Final Energy:  -154.08702898209086
    Total Energy =                       -154.0870289820908567
  //            Monomer A HF           //
    Molecular point group: c1
  Multiplicity = 1
  Basis Set: AUG-CC-PVDZ
    Blend: AUG-CC-PVDZ
  Basis Set: (AUG-CC-PVDZ AUX)
    Blend: AUG-CC-PVDZ-JKFIT
  @DF-RHF Final Energy:   -78.04369751896046
    Total Energy =                        -78.0436975189604709
  //            Monomer B HF           //
    Molecular point group: c1

    Geometry (in Angstrom), charge = 0, multiplicity = 1:

       Center              X                  Y                   Z               Mass
    ------------   -----------------  -----------------  -----------------  -----------------
      Gh(C)           1.425755729680    -0.666910015805    -0.002286870646    12.000000000000
      Gh(H)           1.720805729680    -1.228550015805     0.872503129354     1.007825032230
      Gh(H)           1.135445729680    -1.228630015805    -0.878616870646     1.007825032230
      Gh(C)           1.425665729680     0.666929984195    -0.002286870646    12.000000000000
      Gh(H)           1.135295729680     1.228599984195    -0.878626870646     1.007825032230
      Gh(H)           1.720655729680     1.228619984195     0.872483129354     1.007825032230
         O           -2.248684270320    -0.000020015805    -0.055926870646    15.994914619570
         H           -1.308604270320     0.000069984195     0.147443129354     1.007825032230
         H           -2.666734270320    -0.000030015805     0.806873129354     1.007825032230

  Charge       = 0
  Multiplicity = 1
  Basis Set: AUG-CC-PVDZ
    Blend: AUG-CC-PVDZ
  Basis Set: (AUG-CC-PVDZ AUX)
    Blend: AUG-CC-PVDZ-JKFIT

    Orbital Energies [Eh]
    ---------------------

    Doubly Occupied:

       1A    -20.578149     2A     -1.355693     3A     -0.715911
       4A     -0.586734     5A     -0.509409

  @DF-RHF Final Energy:   -76.04122886236516

   => Energetics <=

    Nuclear Repulsion Energy =              9.1675300813138776
    One-Electron Energy =                -122.9257274392971482
    Two-Electron Energy =                  37.7169684956181257
    Total Energy =                        -76.0412288623651591

  Dipole Moment: [D]
     X:     0.8858      Y:     0.0001      Z:     1.8114     Total:     2.0164

    SAPT Results
  --------------------------------------------------------------------------------------------------------
    Electrostatics                 -3.31418191 [mEh]      -2.07968054 [kcal/mol]      -8.70138340 [kJ/mol]
      Elst10,r                     -3.85098085 [mEh]      -2.41652697 [kcal/mol]     -10.11074883 [kJ/mol]
      Elst12,r                      0.53679894 [mEh]       0.33684642 [kcal/mol]       1.40936544 [kJ/mol]

    Exchange                        2.83847315 [mEh]       1.78116880 [kcal/mol]       7.45241024 [kJ/mol]
      Exch10                        2.70385270 [mEh]       1.69669318 [kcal/mol]       7.09896428 [kJ/mol]
      Exch10(S^2)                   2.69720523 [mEh]       1.69252183 [kcal/mol]       7.08151135 [kJ/mol]
      Exch11(S^2)                   0.09652242 [mEh]       0.06056873 [kcal/mol]       0.25341957 [kJ/mol]
      Exch12(S^2)                   0.03809804 [mEh]       0.02390688 [kcal/mol]       0.10002639 [kJ/mol]

    Induction                      -0.93887725 [mEh]      -0.58915437 [kcal/mol]      -2.46502187 [kJ/mol]
      Ind20,r                      -1.48594300 [mEh]      -0.93244331 [kcal/mol]      -3.90134282 [kJ/mol]
      Ind22                         0.03987063 [mEh]       0.02501920 [kcal/mol]       0.10468033 [kJ/mol]
      Exch-Ind20,r                  0.86744855 [mEh]       0.54433218 [kcal/mol]       2.27748585 [kJ/mol]
      Exch-Ind22                   -0.02327527 [mEh]      -0.01460545 [kcal/mol]      -0.06110921 [kJ/mol]
      delta HF,r (2)               -0.33697816 [mEh]      -0.21145699 [kcal/mol]      -0.88473603 [kJ/mol]

    Dispersion                     -1.83400636 [mEh]      -1.15085637 [kcal/mol]      -4.81518303 [kJ/mol]
      Disp20                       -1.93804508 [mEh]      -1.21614165 [kcal/mol]      -5.08833665 [kJ/mol]
      Disp21                        0.09261041 [mEh]       0.05811391 [kcal/mol]       0.24314860 [kJ/mol]
      Disp22 (SDQ)                  0.09097084 [mEh]       0.05708506 [kcal/mol]       0.23884391 [kJ/mol]
      Disp22 (T)                   -0.27174868 [mEh]      -0.17052487 [kcal/mol]      -0.71347607 [kJ/mol]
      Est. Disp22 (T)              -0.30709935 [mEh]      -0.19270775 [kcal/mol]      -0.80628924 [kJ/mol]
      Exch-Disp20                   0.22755682 [mEh]       0.14279406 [kcal/mol]       0.59745036 [kJ/mol]

  Total HF                         -2.10260077 [mEh]      -1.31940190 [kcal/mol]      -5.52037755 [kJ/mol]
  Total SAPT0                      -3.81308902 [mEh]      -2.39274949 [kcal/mol]     -10.01126385 [kJ/mol]
  Total SAPT2                      -3.12507425 [mEh]      -1.96101370 [kcal/mol]      -8.20488132 [kJ/mol]
  Total SAPT2+                     -3.24859236 [mEh]      -2.03852248 [kcal/mol]      -8.52917806 [kJ/mol]

  Special recipe for scaled SAPT0 (see Manual):
    Electrostatics sSAPT0          -3.85098085 [mEh]      -2.41652697 [kcal/mol]     -10.11074883 [kJ/mol]
    Exchange sSAPT0                 2.70385270 [mEh]       1.69669318 [kcal/mol]       7.09896428 [kJ/mol]
    Induction sSAPT0               -0.94904311 [mEh]      -0.59553354 [kcal/mol]      -2.49171235 [kJ/mol]
    Dispersion sSAPT0              -1.70880161 [mEh]      -1.07228920 [kcal/mol]      -4.48645802 [kJ/mol]
  Total sSAPT0                     -3.80497288 [mEh]      -2.38765653 [kcal/mol]      -9.98995492 [kJ/mol]
  --------------------------------------------------------------------------------------------------------

*** Psi4 exiting successfully. Buy a developer a beer!
