                               Psi4 1.4a2.dev224

  ==> Input File <==

--------------------------------------------------------------------------
#Generated by lconvert.py for sapt job

memory 20 GB

molecule  {
0 1
  C       1.291260   -0.666910   -0.014690
  H       1.586310   -1.228550    0.860100
  H       1.000950   -1.228630   -0.891020
  C       1.291170    0.666930   -0.014690
  H       1.000800    1.228600   -0.891030
  H       1.586160    1.228620    0.860080
--
0 1
  O      -2.251330   -0.000020   -0.075560
  H      -1.311260    0.000070    0.127820
  H      -2.669390   -0.000040    0.787240
units angstrom
no_reorient
symmetry c1
}

set {
scf_type DF
basis aug-cc-pvdz
freeze_core True
guess SAD
}
energy('sapt2+')
--------------------------------------------------------------------------

  //              Dimer HF             //
    Molecular point group: c1
  Charge       = 0
  Multiplicity = 1
  Basis Set: AUG-CC-PVDZ
    Blend: AUG-CC-PVDZ
  Basis Set: (AUG-CC-PVDZ AUX)
    Blend: AUG-CC-PVDZ-JKFIT
  @DF-RHF Final Energy:  -154.08692857206216
    Total Energy =                       -154.0869285720621633
  //            Monomer A HF           //
    Molecular point group: c1
  Multiplicity = 1
  Basis Set: AUG-CC-PVDZ
    Blend: AUG-CC-PVDZ
  Basis Set: (AUG-CC-PVDZ AUX)
    Blend: AUG-CC-PVDZ-JKFIT
  @DF-RHF Final Energy:   -78.04372130751423
    Total Energy =                        -78.0437213075142324
  //            Monomer B HF           //
    Molecular point group: c1

    Geometry (in Angstrom), charge = 0, multiplicity = 1:

       Center              X                  Y                   Z               Mass
    ------------   -----------------  -----------------  -----------------  -----------------
      Gh(C)           1.374179347908    -0.666909796912     0.000541127415    12.000000000000
      Gh(H)           1.669229347908    -1.228549796912     0.875331127415     1.007825032230
      Gh(H)           1.083869347908    -1.228629796912    -0.875788872585     1.007825032230
      Gh(C)           1.374089347908     0.666930203088     0.000541127415    12.000000000000
      Gh(H)           1.083719347908     1.228600203088    -0.875798872585     1.007825032230
      Gh(H)           1.669079347908     1.228620203088     0.875311127415     1.007825032230
         O           -2.168410652092    -0.000019796912    -0.060328872585    15.994914619570
         H           -1.228340652092     0.000070203088     0.143051127415     1.007825032230
         H           -2.586470652092    -0.000039796912     0.802471127415     1.007825032230

  Charge       = 0
  Multiplicity = 1
  Basis Set: AUG-CC-PVDZ
    Blend: AUG-CC-PVDZ
  Basis Set: (AUG-CC-PVDZ AUX)
    Blend: AUG-CC-PVDZ-JKFIT

    Orbital Energies [Eh]
    ---------------------

    Doubly Occupied:

       1A    -20.578143     2A     -1.355686     3A     -0.715903
       4A     -0.586720     5A     -0.509398

  @DF-RHF Final Energy:   -76.04124640987762

   => Energetics <=

    Nuclear Repulsion Energy =              9.1675460628644068
    One-Electron Energy =                -122.9258865023045928
    Two-Electron Energy =                  37.7170940295625670
    Total Energy =                        -76.0412464098776297

  Dipole Moment: [D]
     X:     0.8859      Y:     0.0001      Z:     1.8115     Total:     2.0165

    SAPT Results
  --------------------------------------------------------------------------------------------------------
    Electrostatics                 -4.07828196 [mEh]      -2.55916057 [kcal/mol]     -10.70752782 [kJ/mol]
      Elst10,r                     -4.69483604 [mEh]      -2.94605409 [kcal/mol]     -12.32629033 [kJ/mol]
      Elst12,r                      0.61655408 [mEh]       0.38689352 [kcal/mol]       1.61876250 [kJ/mol]

    Exchange                        4.24098894 [mEh]       2.66126074 [kcal/mol]      11.13471493 [kJ/mol]
      Exch10                        4.04441359 [mEh]       2.53790784 [kcal/mol]      10.61860642 [kJ/mol]
      Exch10(S^2)                   4.03023418 [mEh]       2.52901013 [kcal/mol]      10.58137839 [kJ/mol]
      Exch11(S^2)                   0.14048783 [mEh]       0.08815744 [kcal/mol]       0.36885074 [kJ/mol]
      Exch12(S^2)                   0.05608752 [mEh]       0.03519545 [kcal/mol]       0.14725777 [kJ/mol]

    Induction                      -1.29393180 [mEh]      -0.81195446 [kcal/mol]      -3.39721747 [kJ/mol]
      Ind20,r                      -2.13017943 [mEh]      -1.33670777 [kcal/mol]      -5.59278533 [kJ/mol]
      Ind22                         0.04341394 [mEh]       0.02724266 [kcal/mol]       0.11398328 [kJ/mol]
      Exch-Ind20,r                  1.32055786 [mEh]       0.82866257 [kcal/mol]       3.46712418 [kJ/mol]
      Exch-Ind22                   -0.02691352 [mEh]      -0.01688849 [kcal/mol]      -0.07066143 [kJ/mol]
      delta HF,r (2)               -0.50081065 [mEh]      -0.31426343 [kcal/mol]      -1.31487817 [kJ/mol]

    Dispersion                     -2.28365342 [mEh]      -1.43301415 [kcal/mol]      -5.99573122 [kJ/mol]
      Disp20                       -2.46540592 [mEh]      -1.54706557 [kcal/mol]      -6.47292235 [kJ/mol]
      Disp21                        0.12296418 [mEh]       0.07716119 [kcal/mol]       0.32284242 [kJ/mol]
      Disp22 (SDQ)                  0.11512548 [mEh]       0.07224233 [kcal/mol]       0.30226190 [kJ/mol]
      Disp22 (T)                   -0.34589791 [mEh]      -0.21705421 [kcal/mol]      -0.90815483 [kJ/mol]
      Est. Disp22 (T)              -0.38565463 [mEh]      -0.24200194 [kcal/mol]      -1.01253610 [kJ/mol]
      Exch-Disp20                   0.32931747 [mEh]       0.20664983 [kcal/mol]       0.86462291 [kJ/mol]

  Total HF                         -1.96085467 [mEh]      -1.23045488 [kcal/mol]      -5.14822323 [kJ/mol]
  Total SAPT0                      -4.09694312 [mEh]      -2.57087062 [kcal/mol]     -10.75652267 [kJ/mol]
  Total SAPT2                      -3.26731327 [mEh]      -2.05027003 [kcal/mol]      -8.57832980 [kJ/mol]
  Total SAPT2+                     -3.41487824 [mEh]      -2.14286844 [kcal/mol]      -8.96576157 [kJ/mol]

  Special recipe for scaled SAPT0 (see Manual):
    Electrostatics sSAPT0          -4.69483604 [mEh]      -2.94605409 [kcal/mol]     -12.32629033 [kJ/mol]
    Exchange sSAPT0                 4.04441359 [mEh]       2.53790784 [kcal/mol]      10.61860642 [kJ/mol]
    Induction sSAPT0               -1.29644493 [mEh]      -0.81353148 [kcal/mol]      -3.40381570 [kJ/mol]
    Dispersion sSAPT0              -2.13260033 [mEh]      -1.33822691 [kcal/mol]      -5.59914139 [kJ/mol]
  Total sSAPT0                     -4.07946771 [mEh]      -2.55990464 [kcal/mol]     -10.71064100 [kJ/mol]
  --------------------------------------------------------------------------------------------------------

*** Psi4 exiting successfully. Buy a developer a beer!
