                               Psi4 1.4a2.dev224

  ==> Input File <==

--------------------------------------------------------------------------
#Generated by lconvert.py for sapt job

memory 20 GB

molecule  {
0 1
  O       1.584940    0.104690    0.000010
  H       1.949370   -0.781150    0.000050
  H       0.626500   -0.040430   -0.000320
--
0 1
  N      -2.022480   -0.021240    0.000080
  H      -2.493790   -0.375590    0.822010
  H      -2.213680    0.972210   -0.025810
  H      -2.503570   -0.419650   -0.795580
units angstrom
no_reorient
symmetry c1
}

set {
scf_type DF
basis aug-cc-pvdz
freeze_core True
guess SAD
}
energy('sapt2+')
--------------------------------------------------------------------------

  //              Dimer HF             //
    Molecular point group: c1
  Charge       = 0
  Multiplicity = 1
  Basis Set: AUG-CC-PVDZ
    Blend: AUG-CC-PVDZ
  Basis Set: (AUG-CC-PVDZ AUX)
    Blend: AUG-CC-PVDZ-JKFIT
  @DF-RHF Final Energy:  -132.25230432015675
    Total Energy =                       -132.2523043201567532
  //            Monomer A HF           //
    Molecular point group: c1
  Multiplicity = 1
  Basis Set: AUG-CC-PVDZ
    Blend: AUG-CC-PVDZ
  Basis Set: (AUG-CC-PVDZ AUX)
    Blend: AUG-CC-PVDZ-JKFIT
  @DF-RHF Final Energy:   -76.04091125344794
    Total Energy =                        -76.0409112534479448
  //            Monomer B HF           //
    Molecular point group: c1

    Geometry (in Angstrom), charge = 0, multiplicity = 1:

       Center              X                  Y                   Z               Mass
    ------------   -----------------  -----------------  -----------------  -----------------
      Gh(O)           1.803034376633     0.083928351934    -0.000036605832    15.994914619570
      Gh(H)           2.167464376633    -0.801911648066     0.000003394168     1.007825032230
      Gh(H)           0.844594376633    -0.061191648066    -0.000366605832     1.007825032230
         N           -1.804385623367    -0.042001648066     0.000033394168    14.003074004430
         H           -2.275695623367    -0.396351648066     0.821963394168     1.007825032230
         H           -1.995585623367     0.951448351934    -0.025856605832     1.007825032230
         H           -2.285475623367    -0.440411648066    -0.795626605832     1.007825032230

  Charge       = 0
  Multiplicity = 1
  Basis Set: AUG-CC-PVDZ
    Blend: AUG-CC-PVDZ
  Basis Set: (AUG-CC-PVDZ AUX)
    Blend: AUG-CC-PVDZ-JKFIT

    Orbital Energies [Eh]
    ---------------------

    Doubly Occupied:

       1A    -15.551847     2A     -1.145550     3A     -0.628322
       4A     -0.627676     5A     -0.430614

  @DF-RHF Final Energy:   -56.20562527411194

   => Energetics <=

    Nuclear Repulsion Energy =             11.9657013245438009
    One-Electron Energy =                 -99.5746347808010626
    Two-Electron Energy =                  31.4033081821453202
    Total Energy =                        -56.2056252741119380

  Dipole Moment: [D]
     X:    -1.6121      Y:     0.3389      Z:     0.0006     Total:     1.6473

    SAPT Results
  --------------------------------------------------------------------------------------------------------
    Electrostatics                 -6.42111565 [mEh]      -4.02931090 [kcal/mol]     -16.85863680 [kJ/mol]
      Elst10,r                     -6.62778247 [mEh]      -4.15899629 [kcal/mol]     -17.40124049 [kJ/mol]
      Elst12,r                      0.20666683 [mEh]       0.12968539 [kcal/mol]       0.54260368 [kJ/mol]

    Exchange                        2.21873429 [mEh]       1.39227679 [kcal/mol]       5.82528608 [kJ/mol]
      Exch10                        1.82660791 [mEh]       1.14621377 [kcal/mol]       4.79575840 [kJ/mol]
      Exch10(S^2)                   1.82357236 [mEh]       1.14430893 [kcal/mol]       4.78778858 [kJ/mol]
      Exch11(S^2)                   0.02928681 [mEh]       0.01837775 [kcal/mol]       0.07689252 [kJ/mol]
      Exch12(S^2)                   0.36283957 [mEh]       0.22768527 [kcal/mol]       0.95263517 [kJ/mol]

    Induction                      -1.04922950 [mEh]      -0.65840145 [kcal/mol]      -2.75475167 [kJ/mol]
      Ind20,r                      -1.13005828 [mEh]      -0.70912228 [kcal/mol]      -2.96696760 [kJ/mol]
      Ind22                        -0.13193476 [mEh]      -0.08279031 [kcal/mol]      -0.34639466 [kJ/mol]
      Exch-Ind20,r                  0.42246783 [mEh]       0.26510257 [kcal/mol]       1.10918914 [kJ/mol]
      Exch-Ind22                    0.04932329 [mEh]       0.03095083 [kcal/mol]       0.12949828 [kJ/mol]
      delta HF,r (2)               -0.25902758 [mEh]      -0.16254226 [kcal/mol]      -0.68007682 [kJ/mol]

    Dispersion                     -1.31315350 [mEh]      -0.82401626 [kcal/mol]      -3.44768405 [kJ/mol]
      Disp20                       -1.21986348 [mEh]      -0.76547589 [kcal/mol]      -3.20275112 [kJ/mol]
      Disp21                        0.00682893 [mEh]       0.00428522 [kcal/mol]       0.01792935 [kJ/mol]
      Disp22 (SDQ)                 -0.03880004 [mEh]      -0.02434739 [kcal/mol]      -0.10186949 [kJ/mol]
      Disp22 (T)                   -0.16992251 [mEh]      -0.10662798 [kcal/mol]      -0.44613148 [kJ/mol]
      Est. Disp22 (T)              -0.19782857 [mEh]      -0.12413930 [kcal/mol]      -0.51939884 [kJ/mol]
      Exch-Disp20                   0.13650965 [mEh]       0.08566110 [kcal/mol]       0.35840605 [kJ/mol]

  Total HF                         -5.76779260 [mEh]      -3.61934450 [kcal/mol]     -15.14333738 [kJ/mol]
  Total SAPT0                      -6.85114642 [mEh]      -4.29915928 [kcal/mol]     -17.98768245 [kJ/mol]
  Total SAPT2                      -6.33496467 [mEh]      -3.97525035 [kcal/mol]     -16.63244746 [kJ/mol]
  Total SAPT2+                     -6.56476435 [mEh]      -4.11945182 [kcal/mol]     -17.23578644 [kJ/mol]

  Special recipe for scaled SAPT0 (see Manual):
    Electrostatics sSAPT0          -6.62778247 [mEh]      -4.15899629 [kcal/mol]     -17.40124049 [kJ/mol]
    Exchange sSAPT0                 1.82660791 [mEh]       1.14621377 [kcal/mol]       4.79575840 [kJ/mol]
    Induction sSAPT0               -0.96450478 [mEh]      -0.60523589 [kcal/mol]      -2.53230695 [kJ/mol]
    Dispersion sSAPT0              -1.08267098 [mEh]      -0.67938630 [kcal/mol]      -2.84255227 [kJ/mol]
  Total sSAPT0                     -6.84835033 [mEh]      -4.29740471 [kcal/mol]     -17.98034131 [kJ/mol]
  --------------------------------------------------------------------------------------------------------

*** Psi4 exiting successfully. Buy a developer a beer!
