                               Psi4 1.4a2.dev224

  ==> Input File <==

--------------------------------------------------------------------------
#Generated by lconvert.py for sapt job

memory 20 GB

molecule  {
0 1
  O       1.584940    0.104690    0.000010
  H       1.949370   -0.781150    0.000050
  H       0.626500   -0.040430   -0.000320
--
0 1
  N      -3.245090   -0.012380    0.000260
  H      -3.716400   -0.366730    0.822190
  H      -3.436280    0.981060   -0.025620
  H      -3.726180   -0.410790   -0.795400
units angstrom
no_reorient
symmetry c1
}

set {
scf_type DF
basis aug-cc-pvdz
freeze_core True
guess SAD
}
energy('sapt2+')
--------------------------------------------------------------------------

  //              Dimer HF             //
    Molecular point group: c1
  Charge       = 0
  Multiplicity = 1
  Basis Set: AUG-CC-PVDZ
    Blend: AUG-CC-PVDZ
  Basis Set: (AUG-CC-PVDZ AUX)
    Blend: AUG-CC-PVDZ-JKFIT
  @DF-RHF Final Energy:  -132.24828545096057
    Total Energy =                       -132.2482854509605659
  //            Monomer A HF           //
    Molecular point group: c1
  Multiplicity = 1
  Basis Set: AUG-CC-PVDZ
    Blend: AUG-CC-PVDZ
  Basis Set: (AUG-CC-PVDZ AUX)
    Blend: AUG-CC-PVDZ-JKFIT
  @DF-RHF Final Energy:   -76.04087839648712
    Total Energy =                        -76.0408783964871304
  //            Monomer B HF           //
    Molecular point group: c1

    Geometry (in Angstrom), charge = 0, multiplicity = 1:

       Center              X                  Y                   Z               Mass
    ------------   -----------------  -----------------  -----------------  -----------------
      Gh(O)           2.397170618731     0.079623055907    -0.000124365831    15.994914619570
      Gh(H)           2.761600618731    -0.806216944093    -0.000084365831     1.007825032230
      Gh(H)           1.438730618731    -0.065496944093    -0.000454365831     1.007825032230
         N           -2.432859381269    -0.037446944093     0.000125634169    14.003074004430
         H           -2.904169381269    -0.391796944093     0.822055634169     1.007825032230
         H           -2.624049381269     0.955993055907    -0.025754365831     1.007825032230
         H           -2.913949381269    -0.435856944093    -0.795534365831     1.007825032230

  Charge       = 0
  Multiplicity = 1
  Basis Set: AUG-CC-PVDZ
    Blend: AUG-CC-PVDZ
  Basis Set: (AUG-CC-PVDZ AUX)
    Blend: AUG-CC-PVDZ-JKFIT

    Orbital Energies [Eh]
    ---------------------

    Doubly Occupied:

       1A    -15.551945     2A     -1.145483     3A     -0.628357
       4A     -0.627728     5A     -0.430696

  @DF-RHF Final Energy:   -56.20539429887498

   => Energetics <=

    Nuclear Repulsion Energy =             11.9657474027406003
    One-Electron Energy =                 -99.5738661921387092
    Two-Electron Energy =                  31.4027244905231271
    Total Energy =                        -56.2053942988749782

  Dipole Moment: [D]
     X:    -1.6141      Y:     0.3390      Z:     0.0006     Total:     1.6493

    SAPT Results
  --------------------------------------------------------------------------------------------------------
    Electrostatics                 -1.84151761 [mEh]      -1.15556974 [kcal/mol]      -4.83490381 [kJ/mol]
      Elst10,r                     -1.96240994 [mEh]      -1.23143083 [kcal/mol]      -5.15230659 [kJ/mol]
      Elst12,r                      0.12089233 [mEh]       0.07586108 [kcal/mol]       0.31740278 [kJ/mol]

    Exchange                        0.04058212 [mEh]       0.02546566 [kcal/mol]       0.10654833 [kJ/mol]
      Exch10                        0.02974259 [mEh]       0.01866376 [kcal/mol]       0.07808917 [kJ/mol]
      Exch10(S^2)                   0.02974139 [mEh]       0.01866301 [kcal/mol]       0.07808602 [kJ/mol]
      Exch11(S^2)                   0.00041481 [mEh]       0.00026030 [kcal/mol]       0.00108909 [kJ/mol]
      Exch12(S^2)                   0.01042471 [mEh]       0.00654160 [kcal/mol]       0.02737007 [kJ/mol]

    Induction                      -0.08444658 [mEh]      -0.05299103 [kcal/mol]      -0.22171447 [kJ/mol]
      Ind20,r                      -0.08073231 [mEh]      -0.05066029 [kcal/mol]      -0.21196265 [kJ/mol]
      Ind22                        -0.00472388 [mEh]      -0.00296428 [kcal/mol]      -0.01240254 [kJ/mol]
      Exch-Ind20,r                  0.00624734 [mEh]       0.00392027 [kcal/mol]       0.01640239 [kJ/mol]
      Exch-Ind22                    0.00036555 [mEh]       0.00022939 [kcal/mol]       0.00095975 [kJ/mol]
      delta HF,r (2)               -0.00560328 [mEh]      -0.00351611 [kcal/mol]      -0.01471142 [kJ/mol]

    Dispersion                     -0.17478887 [mEh]      -0.10968167 [kcal/mol]      -0.45890810 [kJ/mol]
      Disp20                       -0.15093676 [mEh]      -0.09471425 [kcal/mol]      -0.39628442 [kJ/mol]
      Disp21                        0.00336760 [mEh]       0.00211320 [kcal/mol]       0.00884163 [kJ/mol]
      Disp22 (SDQ)                 -0.00478506 [mEh]      -0.00300267 [kcal/mol]      -0.01256316 [kJ/mol]
      Disp22 (T)                   -0.02332725 [mEh]      -0.01463807 [kcal/mol]      -0.06124568 [kJ/mol]
      Est. Disp22 (T)              -0.02553664 [mEh]      -0.01602448 [kcal/mol]      -0.06704644 [kJ/mol]
      Exch-Disp20                   0.00310200 [mEh]       0.00194653 [kcal/mol]       0.00814429 [kJ/mol]

  Total HF                         -2.01275560 [mEh]      -1.26302321 [kcal/mol]      -5.28448910 [kJ/mol]
  Total SAPT0                      -2.16059036 [mEh]      -1.35579092 [kcal/mol]      -5.67262922 [kJ/mol]
  Total SAPT2                      -2.03321684 [mEh]      -1.27586283 [kcal/mol]      -5.33821007 [kJ/mol]
  Total SAPT2+                     -2.06017094 [mEh]      -1.29277678 [kcal/mol]      -5.40897805 [kJ/mol]

  Special recipe for scaled SAPT0 (see Manual):
    Electrostatics sSAPT0          -1.96240994 [mEh]      -1.23143083 [kcal/mol]      -5.15230659 [kJ/mol]
    Exchange sSAPT0                 0.02974259 [mEh]       0.01866376 [kcal/mol]       0.07808917 [kJ/mol]
    Induction sSAPT0               -0.08008750 [mEh]      -0.05025566 [kcal/mol]      -0.21026969 [kJ/mol]
    Dispersion sSAPT0              -0.14783439 [mEh]      -0.09276748 [kcal/mol]      -0.38813914 [kJ/mol]
  Total sSAPT0                     -2.16058923 [mEh]      -1.35579021 [kcal/mol]      -5.67262625 [kJ/mol]
  --------------------------------------------------------------------------------------------------------

*** Psi4 exiting successfully. Buy a developer a beer!
