                               Psi4 1.4a2.dev224

  ==> Input File <==

--------------------------------------------------------------------------
#Generated by lconvert.py for sapt job

memory 20 GB

molecule  {
0 1
  O       1.584940    0.104690    0.000010
  H       1.949370   -0.781150    0.000050
  H       0.626500   -0.040430   -0.000320
--
0 1
  N      -2.633780   -0.016810    0.000170
  H      -3.105090   -0.371160    0.822100
  H      -2.824980    0.976630   -0.025710
  H      -3.114880   -0.415220   -0.795490
units angstrom
no_reorient
symmetry c1
}

set {
scf_type DF
basis aug-cc-pvdz
freeze_core True
guess SAD
}
energy('sapt2+')
--------------------------------------------------------------------------

  //              Dimer HF             //
    Molecular point group: c1
  Charge       = 0
  Multiplicity = 1
  Basis Set: AUG-CC-PVDZ
    Blend: AUG-CC-PVDZ
  Basis Set: (AUG-CC-PVDZ AUX)
    Blend: AUG-CC-PVDZ-JKFIT
  @DF-RHF Final Energy:  -132.24972940618795
    Total Energy =                       -132.2497294061879529
  //            Monomer A HF           //
    Molecular point group: c1
  Multiplicity = 1
  Basis Set: AUG-CC-PVDZ
    Blend: AUG-CC-PVDZ
  Basis Set: (AUG-CC-PVDZ AUX)
    Blend: AUG-CC-PVDZ-JKFIT
  @DF-RHF Final Energy:   -76.04088649521249
    Total Energy =                        -76.0408864952124901
  //            Monomer B HF           //
    Molecular point group: c1

    Geometry (in Angstrom), charge = 0, multiplicity = 1:

       Center              X                  Y                   Z               Mass
    ------------   -----------------  -----------------  -----------------  -----------------
      Gh(O)           2.100100499362     0.081775847743    -0.000080629654    15.994914619570
      Gh(H)           2.464530499362    -0.804064152257    -0.000040629654     1.007825032230
      Gh(H)           1.141660499362    -0.063344152257    -0.000410629654     1.007825032230
         N           -2.118619500638    -0.039724152257     0.000079370346    14.003074004430
         H           -2.589929500638    -0.394074152257     0.822009370346     1.007825032230
         H           -2.309819500638     0.953715847743    -0.025800629654     1.007825032230
         H           -2.599719500638    -0.438134152257    -0.795580629654     1.007825032230

  Charge       = 0
  Multiplicity = 1
  Basis Set: AUG-CC-PVDZ
    Blend: AUG-CC-PVDZ
  Basis Set: (AUG-CC-PVDZ AUX)
    Blend: AUG-CC-PVDZ-JKFIT

    Orbital Energies [Eh]
    ---------------------

    Doubly Occupied:

       1A    -15.551911     2A     -1.145508     3A     -0.628352
       4A     -0.627722     5A     -0.430673

  @DF-RHF Final Energy:   -56.20545604706599

   => Energetics <=

    Nuclear Repulsion Energy =             11.9657236911848219
    One-Electron Energy =                 -99.5740262509997933
    Two-Electron Energy =                  31.4028465127489795
    Total Energy =                        -56.2054560470659936

  Dipole Moment: [D]
     X:    -1.6150      Y:     0.3389      Z:     0.0006     Total:     1.6502

    SAPT Results
  --------------------------------------------------------------------------------------------------------
    Electrostatics                 -3.20312780 [mEh]      -2.00999304 [kcal/mol]      -8.40981089 [kJ/mol]
      Elst10,r                     -3.37470119 [mEh]      -2.11765697 [kcal/mol]      -8.86027674 [kJ/mol]
      Elst12,r                      0.17157338 [mEh]       0.10766392 [kcal/mol]       0.45046585 [kJ/mol]

    Exchange                        0.30348283 [mEh]       0.19043835 [kcal/mol]       0.79679406 [kJ/mol]
      Exch10                        0.23572787 [mEh]       0.14792147 [kcal/mol]       0.61890345 [kJ/mol]
      Exch10(S^2)                   0.23566589 [mEh]       0.14788258 [kcal/mol]       0.61874070 [kJ/mol]
      Exch11(S^2)                   0.00365882 [mEh]       0.00229594 [kcal/mol]       0.00960622 [kJ/mol]
      Exch12(S^2)                   0.06409614 [mEh]       0.04022093 [kcal/mol]       0.16828438 [kJ/mol]

    Induction                      -0.26721832 [mEh]      -0.16768203 [kcal/mol]      -0.70158162 [kJ/mol]
      Ind20,r                      -0.26375597 [mEh]      -0.16550937 [kcal/mol]      -0.69249120 [kJ/mol]
      Ind22                        -0.02399267 [mEh]      -0.01505563 [kcal/mol]      -0.06299274 [kJ/mol]
      Exch-Ind20,r                  0.05128260 [mEh]       0.03218032 [kcal/mol]       0.13464244 [kJ/mol]
      Exch-Ind22                    0.00466494 [mEh]       0.00292730 [kcal/mol]       0.01224780 [kJ/mol]
      delta HF,r (2)               -0.03541722 [mEh]      -0.02222464 [kcal/mol]      -0.09298791 [kJ/mol]

    Dispersion                     -0.45867715 [mEh]      -0.28782426 [kcal/mol]      -1.20425669 [kJ/mol]
      Disp20                       -0.40051283 [mEh]      -0.25132559 [kcal/mol]      -1.05154629 [kJ/mol]
      Disp21                        0.00271248 [mEh]       0.00170211 [kcal/mol]       0.00712163 [kJ/mol]
      Disp22 (SDQ)                 -0.01402370 [mEh]      -0.00880000 [kcal/mol]      -0.03681922 [kJ/mol]
      Disp22 (T)                   -0.06012194 [mEh]      -0.03772708 [kcal/mol]      -0.15785012 [kJ/mol]
      Est. Disp22 (T)              -0.06734358 [mEh]      -0.04225873 [kcal/mol]      -0.17681053 [kJ/mol]
      Exch-Disp20                   0.02049047 [mEh]       0.01285796 [kcal/mol]       0.05379772 [kJ/mol]

  Total HF                         -3.38686391 [mEh]      -2.12528919 [kcal/mol]      -8.89220997 [kJ/mol]
  Total SAPT0                      -3.76688627 [mEh]      -2.36375682 [kcal/mol]      -9.88995853 [kJ/mol]
  Total SAPT2                      -3.54688566 [mEh]      -2.22570435 [kcal/mol]      -9.31234701 [kJ/mol]
  Total SAPT2+                     -3.62554045 [mEh]      -2.27506098 [kcal/mol]      -9.51885514 [kJ/mol]

  Special recipe for scaled SAPT0 (see Manual):
    Electrostatics sSAPT0          -3.37470119 [mEh]      -2.11765697 [kcal/mol]      -8.86027674 [kJ/mol]
    Exchange sSAPT0                 0.23572787 [mEh]       0.14792147 [kcal/mol]       0.61890345 [kJ/mol]
    Induction sSAPT0               -0.24785012 [mEh]      -0.15552830 [kcal/mol]      -0.65073040 [kJ/mol]
    Dispersion sSAPT0              -0.38000619 [mEh]      -0.23845748 [kcal/mol]      -0.99770610 [kJ/mol]
  Total sSAPT0                     -3.76682962 [mEh]      -2.36372127 [kcal/mol]      -9.88980980 [kJ/mol]
  --------------------------------------------------------------------------------------------------------

*** Psi4 exiting successfully. Buy a developer a beer!
