                               Psi4 1.4a2.dev224

  ==> Input File <==

--------------------------------------------------------------------------
#Generated by lconvert.py for sapt job

memory 20 GB

molecule  {
0 1
  O       1.584940    0.104690    0.000010
  H       1.949370   -0.781150    0.000050
  H       0.626500   -0.040430   -0.000320
--
0 1
  N      -1.411180   -0.025670   -0.000020
  H      -1.882490   -0.380020    0.821920
  H      -1.602370    0.967780   -0.025900
  H      -1.892270   -0.424070   -0.795680
units angstrom
no_reorient
symmetry c1
}

set {
scf_type DF
basis aug-cc-pvdz
freeze_core True
guess SAD
}
energy('sapt2+')
--------------------------------------------------------------------------

  //              Dimer HF             //
    Molecular point group: c1
  Charge       = 0
  Multiplicity = 1
  Basis Set: AUG-CC-PVDZ
    Blend: AUG-CC-PVDZ
  Basis Set: (AUG-CC-PVDZ AUX)
    Blend: AUG-CC-PVDZ-JKFIT
  @DF-RHF Final Energy:  -132.25416225032870
    Total Energy =                       -132.2541622503287044
  //            Monomer A HF           //
    Molecular point group: c1
  Multiplicity = 1
  Basis Set: AUG-CC-PVDZ
    Blend: AUG-CC-PVDZ
  Basis Set: (AUG-CC-PVDZ AUX)
    Blend: AUG-CC-PVDZ-JKFIT
  @DF-RHF Final Energy:   -76.04097303571983
    Total Energy =                        -76.0409730357198157
  //            Monomer B HF           //
    Molecular point group: c1

    Geometry (in Angstrom), charge = 0, multiplicity = 1:

       Center              X                  Y                   Z               Mass
    ------------   -----------------  -----------------  -----------------  -----------------
      Gh(O)           1.505968253904     0.086080856125     0.000011414631    15.994914619570
      Gh(H)           1.870398253904    -0.799759143875     0.000051414631     1.007825032230
      Gh(H)           0.547528253904    -0.059039143875    -0.000318585369     1.007825032230
         N           -1.490151746096    -0.044279143875    -0.000018585369    14.003074004430
         H           -1.961461746096    -0.398629143875     0.821921414631     1.007825032230
         H           -1.681341746096     0.949170856125    -0.025898585369     1.007825032230
         H           -1.971241746096    -0.442679143875    -0.795678585369     1.007825032230

  Charge       = 0
  Multiplicity = 1
  Basis Set: AUG-CC-PVDZ
    Blend: AUG-CC-PVDZ
  Basis Set: (AUG-CC-PVDZ AUX)
    Blend: AUG-CC-PVDZ-JKFIT

    Orbital Energies [Eh]
    ---------------------

    Doubly Occupied:

       1A    -15.551843     2A     -1.145583     3A     -0.628306
       4A     -0.627623     5A     -0.430552

  @DF-RHF Final Energy:   -56.20586477190294

   => Energetics <=

    Nuclear Repulsion Energy =             11.9656920271098866
    One-Electron Energy =                 -99.5752978403105544
    Two-Electron Energy =                  31.4037410412977351
    Total Energy =                        -56.2058647719029381

  Dipole Moment: [D]
     X:    -1.6104      Y:     0.3384      Z:     0.0006     Total:     1.6456

    SAPT Results
  --------------------------------------------------------------------------------------------------------
    Electrostatics                -16.32273854 [mEh]     -10.24267307 [kcal/mol]     -42.85534413 [kJ/mol]
      Elst10,r                    -16.36876142 [mEh]     -10.27155287 [kcal/mol]     -42.97617719 [kJ/mol]
      Elst12,r                      0.04602288 [mEh]       0.02887979 [kcal/mol]       0.12083306 [kJ/mol]

    Exchange                       15.78628051 [mEh]       9.90604058 [kcal/mol]      41.44687377 [kJ/mol]
      Exch10                       13.82169288 [mEh]       8.67324322 [kcal/mol]      36.28884965 [kJ/mol]
      Exch10(S^2)                  13.68392278 [mEh]       8.58679118 [kcal/mol]      35.92713431 [kJ/mol]
      Exch11(S^2)                   0.19822423 [mEh]       0.12438758 [kcal/mol]       0.52043764 [kJ/mol]
      Exch12(S^2)                   1.76636340 [mEh]       1.10840977 [kcal/mol]       4.63758648 [kJ/mol]

    Induction                      -5.13249292 [mEh]      -3.22068793 [kcal/mol]     -13.47535829 [kJ/mol]
      Ind20,r                      -6.41774433 [mEh]      -4.02719537 [kcal/mol]     -16.84978542 [kJ/mol]
      Ind22                        -0.80333990 [mEh]      -0.50410340 [kcal/mol]      -2.10916861 [kJ/mol]
      Exch-Ind20,r                  3.58076167 [mEh]       2.24696187 [kcal/mol]       9.40128846 [kJ/mol]
      Exch-Ind22                    0.44822114 [mEh]       0.28126301 [kcal/mol]       1.17680445 [kJ/mol]
      delta HF,r (2)               -1.94039150 [mEh]      -1.21761405 [kcal/mol]      -5.09449718 [kJ/mol]

    Dispersion                     -4.02800273 [mEh]      -2.52760987 [kcal/mol]     -10.57551970 [kJ/mol]
      Disp20                       -4.28457419 [mEh]      -2.68861089 [kcal/mol]     -11.24914798 [kJ/mol]
      Disp21                        0.13220350 [mEh]       0.08295895 [kcal/mol]       0.34710024 [kJ/mol]
      Disp22 (SDQ)                 -0.10248367 [mEh]      -0.06430947 [kcal/mol]      -0.26907083 [kJ/mol]
      Disp22 (T)                   -0.56241498 [mEh]      -0.35292073 [kcal/mol]      -1.47662033 [kJ/mol]
      Est. Disp22 (T)              -0.63663482 [mEh]      -0.39949438 [kcal/mol]      -1.67148448 [kJ/mol]
      Exch-Disp20                   0.86348644 [mEh]       0.54184592 [kcal/mol]       2.26708334 [kJ/mol]

  Total HF                         -7.32444271 [mEh]      -4.59615719 [kcal/mol]     -19.23032168 [kJ/mol]
  Total SAPT0                     -10.74553045 [mEh]      -6.74292216 [kcal/mol]     -28.21238631 [kJ/mol]
  Total SAPT2                      -9.09003869 [mEh]      -5.70408539 [kcal/mol]     -23.86589329 [kJ/mol]
  Total SAPT2+                     -9.69695367 [mEh]      -6.08493030 [kcal/mol]     -25.45934836 [kJ/mol]

  Special recipe for scaled SAPT0 (see Manual):
    Electrostatics sSAPT0         -16.36876142 [mEh]     -10.27155287 [kcal/mol]     -42.97617719 [kJ/mol]
    Exchange sSAPT0                13.82169288 [mEh]       8.67324322 [kcal/mol]      36.28884965 [kJ/mol]
    Induction sSAPT0               -4.66812800 [mEh]      -2.92929455 [kcal/mol]     -12.25616839 [kJ/mol]
    Dispersion sSAPT0              -3.39474347 [mEh]      -2.13023369 [kcal/mol]      -8.91289774 [kJ/mol]
  Total sSAPT0                    -10.60994001 [mEh]      -6.65783787 [kcal/mol]     -27.85639367 [kJ/mol]
  --------------------------------------------------------------------------------------------------------

*** Psi4 exiting successfully. Buy a developer a beer!
