                               Psi4 1.4a2.dev224

  ==> Input File <==

--------------------------------------------------------------------------
#Generated by lconvert.py for sapt job

memory 20 GB

molecule  {
0 1
  O       1.584940    0.104690    0.000010
  H       1.949370   -0.781150    0.000050
  H       0.626500   -0.040430   -0.000320
--
0 1
  N      -1.513060   -0.024930   -0.000000
  H      -1.984370   -0.379280    0.821930
  H      -1.704260    0.968520   -0.025880
  H      -1.994150   -0.423340   -0.795660
units angstrom
no_reorient
symmetry c1
}

set {
scf_type DF
basis aug-cc-pvdz
freeze_core True
guess SAD
}
energy('sapt2+')
--------------------------------------------------------------------------

  //              Dimer HF             //
    Molecular point group: c1
  Charge       = 0
  Multiplicity = 1
  Basis Set: AUG-CC-PVDZ
    Blend: AUG-CC-PVDZ
  Basis Set: (AUG-CC-PVDZ AUX)
    Blend: AUG-CC-PVDZ-JKFIT
  @DF-RHF Final Energy:  -132.25427533591613
    Total Energy =                       -132.2542753359161338
  //            Monomer A HF           //
    Molecular point group: c1
  Multiplicity = 1
  Basis Set: AUG-CC-PVDZ
    Blend: AUG-CC-PVDZ
  Basis Set: (AUG-CC-PVDZ AUX)
    Blend: AUG-CC-PVDZ-JKFIT
  @DF-RHF Final Energy:   -76.04095949199714
    Total Energy =                        -76.0409594919971425
  //            Monomer B HF           //
    Molecular point group: c1

    Geometry (in Angstrom), charge = 0, multiplicity = 1:

       Center              X                  Y                   Z               Mass
    ------------   -----------------  -----------------  -----------------  -----------------
      Gh(O)           1.555477894204     0.085721535202     0.000001983125    15.994914619570
      Gh(H)           1.919907894204    -0.800118464798     0.000041983125     1.007825032230
      Gh(H)           0.597037894204    -0.059398464798    -0.000328016875     1.007825032230
         N           -1.542522105796    -0.043898464798    -0.000008016875    14.003074004430
         H           -2.013832105796    -0.398248464798     0.821921983125     1.007825032230
         H           -1.733722105796     0.949551535202    -0.025888016875     1.007825032230
         H           -2.023612105796    -0.442308464798    -0.795668016875     1.007825032230

  Charge       = 0
  Multiplicity = 1
  Basis Set: AUG-CC-PVDZ
    Blend: AUG-CC-PVDZ
  Basis Set: (AUG-CC-PVDZ AUX)
    Blend: AUG-CC-PVDZ-JKFIT

    Orbital Energies [Eh]
    ---------------------

    Doubly Occupied:

       1A    -15.551825     2A     -1.145575     3A     -0.628306
       4A     -0.627631     5A     -0.430562

  @DF-RHF Final Energy:   -56.20582245777481

   => Energetics <=

    Nuclear Repulsion Energy =             11.9657023473957054
    One-Electron Energy =                 -99.5752516120469693
    Two-Electron Energy =                  31.4037268068764490
    Total Energy =                        -56.2058224577748149

  Dipole Moment: [D]
     X:    -1.6105      Y:     0.3385      Z:     0.0006     Total:     1.6457

    SAPT Results
  --------------------------------------------------------------------------------------------------------
    Electrostatics                -13.68378143 [mEh]      -8.58670248 [kcal/mol]     -35.92676318 [kJ/mol]
      Elst10,r                    -13.78982681 [mEh]      -8.65324697 [kcal/mol]     -36.20518530 [kJ/mol]
      Elst12,r                      0.10604538 [mEh]       0.06654448 [kcal/mol]       0.27842212 [kJ/mol]

    Exchange                       11.42113650 [mEh]       7.16687135 [kcal/mol]      29.98618974 [kJ/mol]
      Exch10                        9.89592479 [mEh]       6.20978656 [kcal/mol]      25.98174696 [kJ/mol]
      Exch10(S^2)                   9.82237529 [mEh]       6.16363355 [kcal/mol]      25.78864276 [kJ/mol]
      Exch11(S^2)                   0.14606397 [mEh]       0.09165653 [kcal/mol]       0.38349090 [kJ/mol]
      Exch12(S^2)                   1.37914773 [mEh]       0.86542827 [kcal/mol]       3.62095187 [kJ/mol]

    Induction                      -3.87580940 [mEh]      -2.43210712 [kcal/mol]     -10.17593618 [kJ/mol]
      Ind20,r                      -4.70969842 [mEh]      -2.95538037 [kcal/mol]     -12.36531149 [kJ/mol]
      Ind22                        -0.58993299 [mEh]      -0.37018854 [kcal/mol]      -1.54886885 [kJ/mol]
      Exch-Ind20,r                  2.50367038 [mEh]       1.57107688 [kcal/mol]       6.57338568 [kJ/mol]
      Exch-Ind22                    0.31360771 [mEh]       0.19679181 [kcal/mol]       0.82337694 [kJ/mol]
      delta HF,r (2)               -1.39345609 [mEh]      -0.87440690 [kcal/mol]      -3.65851846 [kJ/mol]

    Dispersion                     -3.32020823 [mEh]      -2.08346212 [kcal/mol]      -8.71720551 [kJ/mol]
      Disp20                       -3.43845006 [mEh]      -2.15765999 [kcal/mol]      -9.02764939 [kJ/mol]
      Disp21                        0.08486495 [mEh]       0.05325356 [kcal/mol]       0.22281288 [kJ/mol]
      Disp22 (SDQ)                 -0.08658967 [mEh]      -0.05433584 [kcal/mol]      -0.22734116 [kJ/mol]
      Disp22 (T)                   -0.45352476 [mEh]      -0.28459108 [kcal/mol]      -1.19072909 [kJ/mol]
      Est. Disp22 (T)              -0.51992115 [mEh]      -0.32625545 [kcal/mol]      -1.36505280 [kJ/mol]
      Exch-Disp20                   0.63988771 [mEh]       0.40153560 [kcal/mol]       1.68002495 [kJ/mol]

  Total HF                         -7.49338614 [mEh]      -4.70217080 [kcal/mol]     -19.67388261 [kJ/mol]
  Total SAPT0                     -10.29194849 [mEh]      -6.45829518 [kcal/mol]     -27.02150705 [kJ/mol]
  Total SAPT2                      -8.93701668 [mEh]      -5.60806263 [kcal/mol]     -23.46413406 [kJ/mol]
  Total SAPT2+                     -9.45866256 [mEh]      -5.93540037 [kcal/mol]     -24.83371513 [kJ/mol]

  Special recipe for scaled SAPT0 (see Manual):
    Electrostatics sSAPT0         -13.78982681 [mEh]      -8.65324697 [kcal/mol]     -36.20518530 [kJ/mol]
    Exchange sSAPT0                 9.89592479 [mEh]       6.20978656 [kcal/mol]      25.98174696 [kJ/mol]
    Induction sSAPT0               -3.54281982 [mEh]      -2.22315300 [kcal/mol]      -9.30167216 [kJ/mol]
    Dispersion sSAPT0              -2.78408010 [mEh]      -1.74703664 [kcal/mol]      -7.30960129 [kJ/mol]
  Total sSAPT0                    -10.22080194 [mEh]      -6.41365004 [kcal/mol]     -26.83471179 [kJ/mol]
  --------------------------------------------------------------------------------------------------------

*** Psi4 exiting successfully. Buy a developer a beer!
