                               Psi4 1.4a2.dev224

  ==> Input File <==

--------------------------------------------------------------------------
#Generated by lconvert.py for sapt job

memory 20 GB

molecule  {
0 1
  O       1.584940    0.104690    0.000010
  H       1.949370   -0.781150    0.000050
  H       0.626500   -0.040430   -0.000320
--
0 1
  N      -1.207410   -0.027140   -0.000050
  H      -1.678720   -0.381490    0.821890
  H      -1.398610    0.966300   -0.025930
  H      -1.688500   -0.425550   -0.795710
units angstrom
no_reorient
symmetry c1
}

set {
scf_type DF
basis aug-cc-pvdz
freeze_core True
guess SAD
}
energy('sapt2+')
--------------------------------------------------------------------------

  //              Dimer HF             //
    Molecular point group: c1
  Charge       = 0
  Multiplicity = 1
  Basis Set: AUG-CC-PVDZ
    Blend: AUG-CC-PVDZ
  Basis Set: (AUG-CC-PVDZ AUX)
    Blend: AUG-CC-PVDZ-JKFIT
  @DF-RHF Final Energy:  -132.25237690285365
    Total Energy =                       -132.2523769028536549
  //            Monomer A HF           //
    Molecular point group: c1
  Multiplicity = 1
  Basis Set: AUG-CC-PVDZ
    Blend: AUG-CC-PVDZ
  Basis Set: (AUG-CC-PVDZ AUX)
    Blend: AUG-CC-PVDZ-JKFIT
  @DF-RHF Final Energy:   -76.04101426511427
    Total Energy =                        -76.0410142651142849
  //            Monomer B HF           //
    Molecular point group: c1

    Geometry (in Angstrom), charge = 0, multiplicity = 1:

       Center              X                  Y                   Z               Mass
    ------------   -----------------  -----------------  -----------------  -----------------
      Gh(O)           1.406944976662     0.086795788977     0.000025993357    15.994914619570
      Gh(H)           1.771374976662    -0.799044211023     0.000065993357     1.007825032230
      Gh(H)           0.448504976662    -0.058324211023    -0.000304006643     1.007825032230
         N           -1.385405023338    -0.045034211023    -0.000034006643    14.003074004430
         H           -1.856715023338    -0.399384211023     0.821905993357     1.007825032230
         H           -1.576605023338     0.948405788977    -0.025914006643     1.007825032230
         H           -1.866495023338    -0.443444211023    -0.795694006643     1.007825032230

  Charge       = 0
  Multiplicity = 1
  Basis Set: AUG-CC-PVDZ
    Blend: AUG-CC-PVDZ
  Basis Set: (AUG-CC-PVDZ AUX)
    Blend: AUG-CC-PVDZ-JKFIT

    Orbital Energies [Eh]
    ---------------------

    Doubly Occupied:

       1A    -15.551856     2A     -1.145600     3A     -0.628309
       4A     -0.627618     5A     -0.430534

  @DF-RHF Final Energy:   -56.20593023991165

   => Energetics <=

    Nuclear Repulsion Energy =             11.9657087878859318
    One-Electron Energy =                 -99.5754439699760781
    Two-Electron Energy =                  31.4038049421784997
    Total Energy =                        -56.2059302399116518

  Dipole Moment: [D]
     X:    -1.6104      Y:     0.3383      Z:     0.0006     Total:     1.6456

    SAPT Results
  --------------------------------------------------------------------------------------------------------
    Electrostatics                -23.84507726 [mEh]     -14.96301188 [kcal/mol]     -62.60524172 [kJ/mol]
      Elst10,r                    -23.70479833 [mEh]     -14.87498552 [kcal/mol]     -62.23693944 [kJ/mol]
      Elst12,r                     -0.14027893 [mEh]      -0.08802636 [kcal/mol]      -0.36830229 [kJ/mol]

    Exchange                       30.01805476 [mEh]      18.83661375 [kcal/mol]      78.81239192 [kJ/mol]
      Exch10                       26.84411115 [mEh]      16.84493406 [kcal/mol]      70.47920412 [kJ/mol]
      Exch10(S^2)                  26.36683814 [mEh]      16.54544073 [kcal/mol]      69.22612400 [kJ/mol]
      Exch11(S^2)                   0.35302647 [mEh]       0.22152745 [kcal/mol]       0.92687086 [kJ/mol]
      Exch12(S^2)                   2.82091714 [mEh]       1.77015223 [kcal/mol]       7.40631694 [kJ/mol]

    Induction                      -9.17317624 [mEh]      -5.75625500 [kcal/mol]     -24.08417091 [kJ/mol]
      Ind20,r                     -12.17755543 [mEh]      -7.64153140 [kcal/mol]     -31.97216737 [kJ/mol]
      Ind22                        -1.50253269 [mEh]      -0.94285350 [kcal/mol]      -3.94489904 [kJ/mol]
      Exch-Ind20,r                  7.30286577 [mEh]       4.58261746 [kcal/mol]      19.17367144 [kJ/mol]
      Exch-Ind22                    0.90106710 [mEh]       0.56542814 [kcal/mol]       2.36575135 [kJ/mol]
      delta HF,r (2)               -3.69702100 [mEh]      -2.31991570 [kcal/mol]      -9.70652729 [kJ/mol]

    Dispersion                     -5.97132854 [mEh]      -3.74706523 [kcal/mol]     -15.67772093 [kJ/mol]
      Disp20                       -6.72574176 [mEh]      -4.22046667 [kcal/mol]     -17.65843255 [kJ/mol]
      Disp21                        0.30809748 [mEh]       0.19333409 [kcal/mol]       0.80890983 [kJ/mol]
      Disp22 (SDQ)                 -0.14685161 [mEh]      -0.09215078 [kcal/mol]      -0.38555886 [kJ/mol]
      Disp22 (T)                   -0.83981144 [mEh]      -0.52698963 [kcal/mol]      -2.20492463 [kJ/mol]
      Est. Disp22 (T)              -0.95316400 [mEh]      -0.59811944 [kcal/mol]      -2.50253173 [kJ/mol]
      Exch-Disp20                   1.54633134 [mEh]       0.97033757 [kcal/mol]       4.05989238 [kJ/mol]

  Total HF                         -5.43239783 [mEh]      -3.40888110 [kcal/mol]     -14.26275853 [kJ/mol]
  Total SAPT0                     -10.61180824 [mEh]      -6.65901021 [kcal/mol]     -27.86129870 [kJ/mol]
  Total SAPT2                      -8.17960916 [mEh]      -5.13278224 [kcal/mol]     -21.47556088 [kJ/mol]
  Total SAPT2+                     -8.97152729 [mEh]      -5.62971837 [kcal/mol]     -23.55474164 [kJ/mol]

  Special recipe for scaled SAPT0 (see Manual):
    Electrostatics sSAPT0         -23.70479833 [mEh]     -14.87498552 [kcal/mol]     -62.23693944 [kJ/mol]
    Exchange sSAPT0                26.84411115 [mEh]      16.84493406 [kcal/mol]      70.47920412 [kJ/mol]
    Induction sSAPT0               -8.16791563 [mEh]      -5.12544444 [kcal/mol]     -21.44485954 [kJ/mol]
    Dispersion sSAPT0              -5.09390961 [mEh]      -3.19647654 [kcal/mol]     -13.37405784 [kJ/mol]
  Total sSAPT0                    -10.12251242 [mEh]      -6.35197244 [kcal/mol]     -26.57665269 [kJ/mol]
  --------------------------------------------------------------------------------------------------------

*** Psi4 exiting successfully. Buy a developer a beer!
