                               Psi4 1.4a2.dev224

  ==> Input File <==

--------------------------------------------------------------------------
#Generated by lconvert.py for sapt job

memory 20 GB

molecule  {
0 1
  O       1.584940    0.104690    0.000010
  H       1.949370   -0.781150    0.000050
  H       0.626500   -0.040430   -0.000320
--
0 1
  N      -1.309290   -0.026400   -0.000030
  H      -1.780600   -0.380750    0.821900
  H      -1.500490    0.967040   -0.025910
  H      -1.790390   -0.424810   -0.795690
units angstrom
no_reorient
symmetry c1
}

set {
scf_type DF
basis aug-cc-pvdz
freeze_core True
guess SAD
}
energy('sapt2+')
--------------------------------------------------------------------------

  //              Dimer HF             //
    Molecular point group: c1
  Charge       = 0
  Multiplicity = 1
  Basis Set: AUG-CC-PVDZ
    Blend: AUG-CC-PVDZ
  Basis Set: (AUG-CC-PVDZ AUX)
    Blend: AUG-CC-PVDZ-JKFIT
  @DF-RHF Final Energy:  -132.25360567378175
    Total Energy =                       -132.2536056737817489
  //            Monomer A HF           //
    Molecular point group: c1
  Multiplicity = 1
  Basis Set: AUG-CC-PVDZ
    Blend: AUG-CC-PVDZ
  Basis Set: (AUG-CC-PVDZ AUX)
    Blend: AUG-CC-PVDZ-JKFIT
  @DF-RHF Final Energy:   -76.04099040974263
    Total Energy =                        -76.0409904097426335
  //            Monomer B HF           //
    Molecular point group: c1

    Geometry (in Angstrom), charge = 0, multiplicity = 1:

       Center              X                  Y                   Z               Mass
    ------------   -----------------  -----------------  -----------------  -----------------
      Gh(O)           1.456454616963     0.086436180409     0.000016561851    15.994914619570
      Gh(H)           1.820884616963    -0.799403819591     0.000056561851     1.007825032230
      Gh(H)           0.498014616963    -0.058683819591    -0.000313438149     1.007825032230
         N           -1.437775383037    -0.044653819591    -0.000023438149    14.003074004430
         H           -1.909085383037    -0.399003819591     0.821906561851     1.007825032230
         H           -1.628975383037     0.948786180409    -0.025903438149     1.007825032230
         H           -1.918875383037    -0.443063819591    -0.795683438149     1.007825032230

  Charge       = 0
  Multiplicity = 1
  Basis Set: AUG-CC-PVDZ
    Blend: AUG-CC-PVDZ
  Basis Set: (AUG-CC-PVDZ AUX)
    Blend: AUG-CC-PVDZ-JKFIT

    Orbital Energies [Eh]
    ---------------------

    Doubly Occupied:

       1A    -15.551860     2A     -1.145594     3A     -0.628306
       4A     -0.627621     5A     -0.430544

  @DF-RHF Final Energy:   -56.20590151866305

   => Energetics <=

    Nuclear Repulsion Energy =             11.9657236911848237
    One-Electron Energy =                 -99.5754013776181637
    Two-Electron Energy =                  31.4037761677702960
    Total Energy =                        -56.2059015186630475

  Dipole Moment: [D]
     X:    -1.6104      Y:     0.3384      Z:     0.0006     Total:     1.6456

    SAPT Results
  --------------------------------------------------------------------------------------------------------
    Electrostatics                -19.64485281 [mEh]     -12.32733125 [kcal/mol]     -51.57755396 [kJ/mol]
      Elst10,r                    -19.60986955 [mEh]     -12.30537892 [kcal/mol]     -51.48570540 [kJ/mol]
      Elst12,r                     -0.03498327 [mEh]      -0.02195233 [kcal/mol]      -0.09184856 [kJ/mol]

    Exchange                       21.78612392 [mEh]      13.67099915 [kcal/mol]      57.19946046 [kJ/mol]
      Exch10                       19.27646643 [mEh]      12.09616530 [kcal/mol]      50.61035563 [kJ/mol]
      Exch10(S^2)                  19.01946148 [mEh]      11.93489227 [kcal/mol]      49.93558924 [kJ/mol]
      Exch11(S^2)                   0.26636365 [mEh]       0.16714571 [kcal/mol]       0.69933766 [kJ/mol]
      Exch12(S^2)                   2.24329384 [mEh]       1.40768814 [kcal/mol]       5.88976717 [kJ/mol]

    Induction                      -6.84017757 [mEh]      -4.29227622 [kcal/mol]     -17.95888372 [kJ/mol]
      Ind20,r                      -8.80982854 [mEh]      -5.52825087 [kcal/mol]     -23.13020165 [kJ/mol]
      Ind22                        -1.09719434 [mEh]      -0.68849984 [kcal/mol]      -2.88068334 [kJ/mol]
      Exch-Ind20,r                  5.11762007 [mEh]       3.21135508 [kcal/mol]      13.43630966 [kJ/mol]
      Exch-Ind22                    0.63735903 [mEh]       0.39994883 [kcal/mol]       1.67338590 [kJ/mol]
      delta HF,r (2)               -2.68813379 [mEh]      -1.68682942 [kcal/mol]      -7.05769430 [kJ/mol]

    Dispersion                     -4.89748309 [mEh]      -3.07321704 [kcal/mol]     -12.85834009 [kJ/mol]
      Disp20                       -5.35947874 [mEh]      -3.36312368 [kcal/mol]     -14.07130949 [kJ/mol]
      Disp21                        0.20297569 [mEh]       0.12736917 [kcal/mol]       0.53291260 [kJ/mol]
      Disp22 (SDQ)                 -0.12206710 [mEh]      -0.07659826 [kcal/mol]      -0.32048713 [kJ/mol]
      Disp22 (T)                   -0.68676267 [mEh]      -0.43095008 [kcal/mol]      -1.80309514 [kJ/mol]
      Est. Disp22 (T)              -0.77818562 [mEh]      -0.48831885 [kcal/mol]      -2.04312605 [kJ/mol]
      Exch-Disp20                   1.15927267 [mEh]       0.72745458 [kcal/mol]       3.04366998 [kJ/mol]

  Total HF                         -6.71374538 [mEh]      -4.21293883 [kcal/mol]     -17.62693606 [kJ/mol]
  Total SAPT0                     -10.91395144 [mEh]      -6.84860793 [kcal/mol]     -28.65457557 [kJ/mol]
  Total SAPT2                      -8.89911253 [mEh]      -5.58427742 [kcal/mol]     -23.36461673 [kJ/mol]
  Total SAPT2+                     -9.59638956 [mEh]      -6.02182536 [kcal/mol]     -25.19531732 [kJ/mol]

  Special recipe for scaled SAPT0 (see Manual):
    Electrostatics sSAPT0         -19.60986955 [mEh]     -12.30537892 [kcal/mol]     -51.48570540 [kJ/mol]
    Exchange sSAPT0                19.27646643 [mEh]      12.09616530 [kcal/mol]      50.61035563 [kJ/mol]
    Induction sSAPT0               -6.17006716 [mEh]      -3.87177560 [kcal/mol]     -16.19950909 [kJ/mol]
    Dispersion sSAPT0              -4.15257334 [mEh]      -2.60577911 [kcal/mol]     -10.90257981 [kJ/mol]
  Total sSAPT0                    -10.65604362 [mEh]      -6.68676833 [kcal/mol]     -27.97743867 [kJ/mol]
  --------------------------------------------------------------------------------------------------------

*** Psi4 exiting successfully. Buy a developer a beer!
