                               Psi4 1.4a2.dev224

  ==> Input File <==

--------------------------------------------------------------------------
#Generated by lconvert.py for sapt job

memory 20 GB

molecule  {
0 1
  O       1.584940    0.104690    0.000010
  H       1.949370   -0.781150    0.000050
  H       0.626500   -0.040430   -0.000320
--
0 1
  N      -0.799870   -0.030090   -0.000110
  H      -1.271180   -0.384440    0.821820
  H      -0.991070    0.963350   -0.025990
  H      -1.280970   -0.428500   -0.795770
units angstrom
no_reorient
symmetry c1
}

set {
scf_type DF
basis aug-cc-pvdz
freeze_core True
guess SAD
}
energy('sapt2+')
--------------------------------------------------------------------------

  //              Dimer HF             //
    Molecular point group: c1
  Charge       = 0
  Multiplicity = 1
  Basis Set: AUG-CC-PVDZ
    Blend: AUG-CC-PVDZ
  Basis Set: (AUG-CC-PVDZ AUX)
    Blend: AUG-CC-PVDZ-JKFIT
  @DF-RHF Final Energy:  -132.23178186461692
    Total Energy =                       -132.2317818646169201
  //            Monomer A HF           //
    Molecular point group: c1
  Multiplicity = 1
  Basis Set: AUG-CC-PVDZ
    Blend: AUG-CC-PVDZ
  Basis Set: (AUG-CC-PVDZ AUX)
    Blend: AUG-CC-PVDZ-JKFIT
  @DF-RHF Final Energy:   -76.04125427740880
    Total Energy =                        -76.0412542774087967
  //            Monomer B HF           //
    Molecular point group: c1

    Geometry (in Angstrom), charge = 0, multiplicity = 1:

       Center              X                  Y                   Z               Mass
    ------------   -----------------  -----------------  -----------------  -----------------
      Gh(O)           1.208898134535     0.088229363676     0.000055438453    15.994914619570
      Gh(H)           1.573328134535    -0.797610636324     0.000095438453     1.007825032230
      Gh(H)           0.250458134535    -0.056890636324    -0.000274561547     1.007825032230
         N           -1.175911865465    -0.046550636324    -0.000064561547    14.003074004430
         H           -1.647221865465    -0.400900636324     0.821865438453     1.007825032230
         H           -1.367111865465     0.946889363676    -0.025944561547     1.007825032230
         H           -1.657011865465    -0.444960636324    -0.795724561547     1.007825032230

  Charge       = 0
  Multiplicity = 1
  Basis Set: AUG-CC-PVDZ
    Blend: AUG-CC-PVDZ
  Basis Set: (AUG-CC-PVDZ AUX)
    Blend: AUG-CC-PVDZ-JKFIT

    Orbital Energies [Eh]
    ---------------------

    Doubly Occupied:

       1A    -15.551711     2A     -1.145584     3A     -0.628314
       4A     -0.627630     5A     -0.430528

  @DF-RHF Final Energy:   -56.20601474739905

   => Energetics <=

    Nuclear Repulsion Energy =             11.9657236911848237
    One-Electron Energy =                 -99.5759433697451612
    Two-Electron Energy =                  31.4042049311612885
    Total Energy =                        -56.2060147473990526

  Dipole Moment: [D]
     X:    -1.6114      Y:     0.3382      Z:     0.0006     Total:     1.6465

    SAPT Results
  --------------------------------------------------------------------------------------------------------
    Electrostatics                -55.07126983 [mEh]     -34.55774355 [kcal/mol]    -144.58959902 [kJ/mol]
      Elst10,r                    -54.23394276 [mEh]     -34.03231288 [kcal/mol]    -142.39119709 [kJ/mol]
      Elst12,r                     -0.83732707 [mEh]      -0.52543067 [kcal/mol]      -2.19840193 [kJ/mol]

    Exchange                      106.17048615 [mEh]      66.62298590 [kcal/mol]     278.75057299 [kJ/mol]
      Exch10                       99.20646355 [mEh]      62.25299574 [kcal/mol]     260.46653417 [kJ/mol]
      Exch10(S^2)                  93.84084457 [mEh]      58.88601900 [kcal/mol]     246.37910348 [kJ/mol]
      Exch11(S^2)                   0.81919286 [mEh]       0.51405128 [kcal/mol]       2.15079054 [kJ/mol]
      Exch12(S^2)                   6.14482975 [mEh]       3.85593888 [kcal/mol]      16.13324828 [kJ/mol]

    Induction                     -31.57432186 [mEh]     -19.81318609 [kcal/mol]     -82.89837061 [kJ/mol]
      Ind20,r                     -47.60578546 [mEh]     -29.87308138 [kcal/mol]    -124.98897249 [kJ/mol]
      Ind22                        -5.42779145 [mEh]      -3.40599056 [kcal/mol]     -14.25066449 [kJ/mol]
      Exch-Ind20,r                 29.28403487 [mEh]      18.37600931 [kcal/mol]      76.88522295 [kJ/mol]
      Exch-Ind22                    3.33883020 [mEh]       2.09514758 [kcal/mol]       8.76609748 [kJ/mol]
      delta HF,r (2)              -11.16361001 [mEh]      -7.00527105 [kcal/mol]     -29.31005405 [kJ/mol]

    Dispersion                    -13.63078581 [mEh]      -8.55344723 [kcal/mol]     -35.78762322 [kJ/mol]
      Disp20                      -17.04399345 [mEh]     -10.69526736 [kcal/mol]     -44.74899863 [kJ/mol]
      Disp21                        1.50228345 [mEh]       0.94269710 [kcal/mol]       3.94424466 [kJ/mol]
      Disp22 (SDQ)                 -0.36435971 [mEh]      -0.22863917 [kcal/mol]      -0.95662630 [kJ/mol]
      Disp22 (T)                   -1.99937893 [mEh]      -1.25462922 [kcal/mol]      -5.24936867 [kJ/mol]
      Est. Disp22 (T)              -2.17119623 [mEh]      -1.36244621 [kcal/mol]      -5.70047493 [kJ/mol]
      Exch-Disp20                   4.44648013 [mEh]       2.79020841 [kcal/mol]      11.67423197 [kJ/mol]

  Total HF                         15.48716019 [mEh]       9.71833974 [kcal/mol]      40.66153348 [kJ/mol]
  Total SAPT0                       2.88964687 [mEh]       1.81328079 [kcal/mol]       7.58676682 [kJ/mol]
  Total SAPT2                       6.92738115 [mEh]       4.34699730 [kcal/mol]      18.18783670 [kJ/mol]
  Total SAPT2+                      5.89410866 [mEh]       3.69860902 [kcal/mol]      15.47498015 [kJ/mol]

  Special recipe for scaled SAPT0 (see Manual):
    Electrostatics sSAPT0         -54.23394276 [mEh]     -34.03231288 [kcal/mol]    -142.39119709 [kJ/mol]
    Exchange sSAPT0                99.20646355 [mEh]      62.25299574 [kcal/mol]     260.46653417 [kJ/mol]
    Induction sSAPT0              -24.16947526 [mEh]     -15.16657470 [kcal/mol]     -63.45694855 [kJ/mol]
    Dispersion sSAPT0             -11.79035069 [mEh]      -7.39855676 [kcal/mol]     -30.95556147 [kJ/mol]
  Total sSAPT0                      9.01269485 [mEh]       5.65555140 [kcal/mol]      23.66282706 [kJ/mol]
  --------------------------------------------------------------------------------------------------------

*** Psi4 exiting successfully. Buy a developer a beer!
