                               Psi4 1.4a2.dev224

  ==> Input File <==

--------------------------------------------------------------------------
#Generated by lconvert.py for sapt job

memory 20 GB

molecule  {
0 1
  O       1.584940    0.104690    0.000010
  H       1.949370   -0.781150    0.000050
  H       0.626500   -0.040430   -0.000320
--
0 1
  N      -1.003640   -0.028620   -0.000080
  H      -1.474950   -0.382970    0.821850
  H      -1.194840    0.964830   -0.025960
  H      -1.484730   -0.427030   -0.795740
units angstrom
no_reorient
symmetry c1
}

set {
scf_type DF
basis aug-cc-pvdz
freeze_core True
guess SAD
}
energy('sapt2+')
--------------------------------------------------------------------------

  //              Dimer HF             //
    Molecular point group: c1
  Charge       = 0
  Multiplicity = 1
  Basis Set: AUG-CC-PVDZ
    Blend: AUG-CC-PVDZ
  Basis Set: (AUG-CC-PVDZ AUX)
    Blend: AUG-CC-PVDZ-JKFIT
  @DF-RHF Final Energy:  -132.24645439364372
    Total Energy =                       -132.2464543936437167
  //            Monomer A HF           //
    Molecular point group: c1
  Multiplicity = 1
  Basis Set: AUG-CC-PVDZ
    Blend: AUG-CC-PVDZ
  Basis Set: (AUG-CC-PVDZ AUX)
    Blend: AUG-CC-PVDZ-JKFIT
  @DF-RHF Final Energy:   -76.04109539469741
    Total Energy =                        -76.0410953946974075
  //            Monomer B HF           //
    Molecular point group: c1

    Geometry (in Angstrom), charge = 0, multiplicity = 1:

       Center              X                  Y                   Z               Mass
    ------------   -----------------  -----------------  -----------------  -----------------
      Gh(O)           1.307921411776     0.087514718469     0.000040859727    15.994914619570
      Gh(H)           1.672351411776    -0.798325281531     0.000080859727     1.007825032230
      Gh(H)           0.349481411776    -0.057605281531    -0.000289140273     1.007825032230
         N           -1.280658588224    -0.045795281531    -0.000049140273    14.003074004430
         H           -1.751968588224    -0.400145281531     0.821880859727     1.007825032230
         H           -1.471858588224     0.947654718469    -0.025929140273     1.007825032230
         H           -1.761748588224    -0.444205281531    -0.795709140273     1.007825032230

  Charge       = 0
  Multiplicity = 1
  Basis Set: AUG-CC-PVDZ
    Blend: AUG-CC-PVDZ
  Basis Set: (AUG-CC-PVDZ AUX)
    Blend: AUG-CC-PVDZ-JKFIT

    Orbital Energies [Eh]
    ---------------------

    Doubly Occupied:

       1A    -15.551750     2A     -1.145596     3A     -0.628318
       4A     -0.627624     5A     -0.430525

  @DF-RHF Final Energy:   -56.20596794747902

   => Energetics <=

    Nuclear Repulsion Energy =             11.9657023473957072
    One-Electron Energy =                 -99.5757149998161140
    Two-Electron Energy =                  31.4040447049413913
    Total Energy =                        -56.2059679474790173

  Dipole Moment: [D]
     X:    -1.6108      Y:     0.3381      Z:     0.0006     Total:     1.6459

    SAPT Results
  --------------------------------------------------------------------------------------------------------
    Electrostatics                -35.90862336 [mEh]     -22.53300135 [kcal/mol]     -94.27807765 [kJ/mol]
      Elst10,r                    -35.47452283 [mEh]     -22.26059915 [kcal/mol]     -93.13834685 [kJ/mol]
      Elst12,r                     -0.43410054 [mEh]      -0.27240220 [kcal/mol]      -1.13973081 [kJ/mol]

    Exchange                       56.70541396 [mEh]      35.58318448 [kcal/mol]     148.88004385 [kJ/mol]
      Exch10                       51.82286054 [mEh]      32.51933595 [kcal/mol]     136.06090160 [kJ/mol]
      Exch10(S^2)                  50.20157808 [mEh]      31.50196585 [kcal/mol]     131.80422510 [kJ/mol]
      Exch11(S^2)                   0.58204252 [mEh]       0.36523719 [kcal/mol]       1.52815242 [kJ/mol]
      Exch12(S^2)                   4.30051090 [mEh]       2.69861133 [kcal/mol]      11.29098982 [kJ/mol]

    Induction                     -16.81531444 [mEh]     -10.55176912 [kcal/mol]     -44.14860198 [kJ/mol]
      Ind20,r                     -23.74500175 [mEh]     -14.90021355 [kcal/mol]     -62.34249351 [kJ/mol]
      Ind22                        -2.84204129 [mEh]      -1.78340784 [kcal/mol]      -7.46177839 [kJ/mol]
      Exch-Ind20,r                 14.75574208 [mEh]       9.25936795 [kcal/mol]      38.74119548 [kJ/mol]
      Exch-Ind22                    1.76611603 [mEh]       1.10825454 [kcal/mol]       4.63693701 [kJ/mol]
      delta HF,r (2)               -6.75012950 [mEh]      -4.23577021 [kcal/mol]     -17.72246257 [kJ/mol]

    Dispersion                     -8.95090517 [mEh]      -5.61677779 [kcal/mol]     -23.50059828 [kJ/mol]
      Disp20                      -10.66990115 [mEh]      -6.69546405 [kcal/mol]     -28.01382160 [kJ/mol]
      Disp21                        0.69120860 [mEh]       0.43373994 [kcal/mol]       1.81476793 [kJ/mol]
      Disp22 (SDQ)                 -0.22348513 [mEh]      -0.14023904 [kcal/mol]      -0.58676012 [kJ/mol]
      Disp22 (T)                   -1.30218387 [mEh]      -0.81713272 [kcal/mol]      -3.41888328 [kJ/mol]
      Est. Disp22 (T)              -1.43153606 [mEh]      -0.89830244 [kcal/mol]      -3.75849741 [kJ/mol]
      Exch-Disp20                   2.68280857 [mEh]       1.68348779 [kcal/mol]       7.04371293 [kJ/mol]

  Total HF                          0.60894853 [mEh]       0.38212097 [kcal/mol]       1.59879415 [kJ/mol]
  Total SAPT0                      -7.37814404 [mEh]      -4.62985529 [kcal/mol]     -19.37131452 [kJ/mol]
  Total SAPT2                      -4.00561642 [mEh]      -2.51356225 [kcal/mol]     -10.51674446 [kJ/mol]
  Total SAPT2+                     -4.96942901 [mEh]      -3.11836378 [kcal/mol]     -13.04723407 [kJ/mol]

  Special recipe for scaled SAPT0 (see Manual):
    Electrostatics sSAPT0         -35.47452283 [mEh]     -22.26059915 [kcal/mol]     -93.13834685 [kJ/mol]
    Exchange sSAPT0                51.82286054 [mEh]      32.51933595 [kcal/mol]     136.06090160 [kJ/mol]
    Induction sSAPT0              -14.26309171 [mEh]      -8.95022517 [kcal/mol]     -37.44774212 [kJ/mol]
    Dispersion sSAPT0              -7.71868022 [mEh]      -4.84354496 [kcal/mol]     -20.26539212 [kJ/mol]
  Total sSAPT0                     -5.63343421 [mEh]      -3.53503334 [kcal/mol]     -14.79057948 [kJ/mol]
  --------------------------------------------------------------------------------------------------------

*** Psi4 exiting successfully. Buy a developer a beer!
