                               Psi4 1.4a2.dev224

  ==> Input File <==

--------------------------------------------------------------------------
#Generated by lconvert.py for sapt job

memory 20 GB

molecule  {
0 1
  O       1.584940    0.104690    0.000010
  H       1.949370   -0.781150    0.000050
  H       0.626500   -0.040430   -0.000320
--
0 1
  N      -1.614940   -0.024190    0.000010
  H      -2.086250   -0.378540    0.821950
  H      -1.806140    0.969250   -0.025870
  H      -2.096040   -0.422600   -0.795640
units angstrom
no_reorient
symmetry c1
}

set {
scf_type DF
basis aug-cc-pvdz
freeze_core True
guess SAD
}
energy('sapt2+')
--------------------------------------------------------------------------

  //              Dimer HF             //
    Molecular point group: c1
  Charge       = 0
  Multiplicity = 1
  Basis Set: AUG-CC-PVDZ
    Blend: AUG-CC-PVDZ
  Basis Set: (AUG-CC-PVDZ AUX)
    Blend: AUG-CC-PVDZ-JKFIT
  @DF-RHF Final Energy:  -132.25410381679816
    Total Energy =                       -132.2541038167981924
  //            Monomer A HF           //
    Molecular point group: c1
  Multiplicity = 1
  Basis Set: AUG-CC-PVDZ
    Blend: AUG-CC-PVDZ
  Basis Set: (AUG-CC-PVDZ AUX)
    Blend: AUG-CC-PVDZ-JKFIT
  @DF-RHF Final Energy:   -76.04094792868314
    Total Energy =                        -76.0409479286831527
  //            Monomer B HF           //
    Molecular point group: c1

    Geometry (in Angstrom), charge = 0, multiplicity = 1:

       Center              X                  Y                   Z               Mass
    ------------   -----------------  -----------------  -----------------  -----------------
      Gh(O)           1.604987534505     0.085362214278    -0.000003451740    15.994914619570
      Gh(H)           1.969417534505    -0.800477785722     0.000036548260     1.007825032230
      Gh(H)           0.646547534505    -0.059757785722    -0.000333451740     1.007825032230
         N           -1.594892465495    -0.043517785722    -0.000003451740    14.003074004430
         H           -2.066202465495    -0.397867785722     0.821936548260     1.007825032230
         H           -1.786092465495     0.949922214278    -0.025883451740     1.007825032230
         H           -2.075992465495    -0.441927785722    -0.795653451740     1.007825032230

  Charge       = 0
  Multiplicity = 1
  Basis Set: AUG-CC-PVDZ
    Blend: AUG-CC-PVDZ
  Basis Set: (AUG-CC-PVDZ AUX)
    Blend: AUG-CC-PVDZ-JKFIT

    Orbital Energies [Eh]
    ---------------------

    Doubly Occupied:

       1A    -15.551818     2A     -1.145570     3A     -0.628305
       4A     -0.627642     5A     -0.430570

  @DF-RHF Final Energy:   -56.20577860764127

   => Energetics <=

    Nuclear Repulsion Energy =             11.9657226537943568
    One-Electron Energy =                 -99.5751906864254579
    Two-Electron Energy =                  31.4036894249898282
    Total Energy =                        -56.2057786076412711

  Dipole Moment: [D]
     X:    -1.6106      Y:     0.3385      Z:     0.0006     Total:     1.6458

    SAPT Results
  --------------------------------------------------------------------------------------------------------
    Electrostatics                -11.57361848 [mEh]      -7.26255524 [kcal/mol]     -30.38653113 [kJ/mol]
      Elst10,r                    -11.72213508 [mEh]      -7.35575082 [kcal/mol]     -30.77646142 [kJ/mol]
      Elst12,r                      0.14851660 [mEh]       0.09319557 [kcal/mol]       0.38993029 [kJ/mol]

    Exchange                        8.25000777 [mEh]       5.17695803 [kcal/mol]      21.66039241 [kJ/mol]
      Exch10                        7.07459217 [mEh]       4.43937361 [kcal/mol]      18.57433917 [kJ/mol]
      Exch10(S^2)                   7.03547858 [mEh]       4.41482946 [kcal/mol]      18.47164648 [kJ/mol]
      Exch11(S^2)                   0.10687329 [mEh]       0.06706400 [kcal/mol]       0.28059578 [kJ/mol]
      Exch12(S^2)                   1.06854231 [mEh]       0.67052043 [kcal/mol]       2.80545746 [kJ/mol]

    Induction                      -2.94584703 [mEh]      -1.84854692 [kcal/mol]      -7.73432030 [kJ/mol]
      Ind20,r                      -3.48315657 [mEh]      -2.18571375 [kcal/mol]      -9.14502632 [kJ/mol]
      Ind22                        -0.43447257 [mEh]      -0.27263565 [kcal/mol]      -1.14070758 [kJ/mol]
      Exch-Ind20,r                  1.75061194 [mEh]       1.09852558 [kcal/mol]       4.59623101 [kJ/mol]
      Exch-Ind22                    0.21836310 [mEh]       0.13702491 [kcal/mol]       0.57331224 [kJ/mol]
      delta HF,r (2)               -0.99719293 [mEh]      -0.62574801 [kcal/mol]      -2.61812966 [kJ/mol]

    Dispersion                     -2.74704224 [mEh]      -1.72379503 [kcal/mol]      -7.21235840 [kJ/mol]
      Disp20                       -2.77106928 [mEh]      -1.73887222 [kcal/mol]      -7.27544138 [kJ/mol]
      Disp21                        0.05347811 [mEh]       0.03355802 [kcal/mol]       0.14040676 [kJ/mol]
      Disp22 (SDQ)                 -0.07356836 [mEh]      -0.04616484 [kcal/mol]      -0.19315371 [kJ/mol]
      Disp22 (T)                   -0.37599380 [mEh]      -0.23593967 [kcal/mol]      -0.98717158 [kJ/mol]
      Est. Disp22 (T)              -0.42816993 [mEh]      -0.26868069 [kcal/mol]      -1.12416000 [kJ/mol]
      Exch-Disp20                   0.47228722 [mEh]       0.29636471 [kcal/mol]       1.23998993 [kJ/mol]

  Total HF                         -7.37728047 [mEh]      -4.62931339 [kcal/mol]     -19.36904722 [kJ/mol]
  Total SAPT0                      -9.67606253 [mEh]      -6.07182091 [kcal/mol]     -25.40449867 [kJ/mol]
  Total SAPT2                      -8.56823979 [mEh]      -5.37665164 [kcal/mol]     -22.49591048 [kJ/mol]
  Total SAPT2+                     -9.01649998 [mEh]      -5.65793915 [kcal/mol]     -23.67281742 [kJ/mol]

  Special recipe for scaled SAPT0 (see Manual):
    Electrostatics sSAPT0         -11.72213508 [mEh]      -7.35575082 [kcal/mol]     -30.77646142 [kJ/mol]
    Exchange sSAPT0                 7.07459217 [mEh]       4.43937361 [kcal/mol]      18.57433917 [kJ/mol]
    Induction sSAPT0               -2.70037747 [mEh]      -1.69451245 [kcal/mol]      -7.08984008 [kJ/mol]
    Dispersion sSAPT0              -2.29086117 [mEh]      -1.43753709 [kcal/mol]      -6.01465518 [kJ/mol]
  Total sSAPT0                     -9.63878156 [mEh]      -6.04842675 [kcal/mol]     -25.30661750 [kJ/mol]
  --------------------------------------------------------------------------------------------------------

*** Psi4 exiting successfully. Buy a developer a beer!
