                               Psi4 1.4a2.dev224

  ==> Input File <==

--------------------------------------------------------------------------
#Generated by lconvert.py for sapt job

memory 20 GB

molecule  {
0 1
  C      -2.024830    0.000030   -0.000010
  H      -2.390900   -0.618790   -0.813960
  H      -2.391450   -0.395610    0.942610
  H      -2.391760    1.014030   -0.128930
  H      -0.938770    0.000470    0.000290
--
0 1
  N       1.338970    0.000160    0.000050
  H       1.732010    0.376370   -0.852770
  H       1.732060    0.550130    0.752600
  H       1.730630   -0.927120    0.100410
units angstrom
no_reorient
symmetry c1
}

set {
scf_type DF
basis aug-cc-pvdz
freeze_core True
guess SAD
}
energy('sapt2+')
--------------------------------------------------------------------------

  //              Dimer HF             //
    Molecular point group: c1
  Charge       = 0
  Multiplicity = 1
  Basis Set: AUG-CC-PVDZ
    Blend: AUG-CC-PVDZ
  Basis Set: (AUG-CC-PVDZ AUX)
    Blend: AUG-CC-PVDZ-JKFIT
  @DF-RHF Final Energy:   -96.40226734593263
    Total Energy =                        -96.4022673459326285
  //            Monomer A HF           //
    Molecular point group: c1
  Multiplicity = 1
  Basis Set: AUG-CC-PVDZ
    Blend: AUG-CC-PVDZ
  Basis Set: (AUG-CC-PVDZ AUX)
    Blend: AUG-CC-PVDZ-JKFIT
  @DF-RHF Final Energy:   -40.19974218864761
    Total Energy =                        -40.1997421886476118
  //            Monomer B HF           //
    Molecular point group: c1

    Geometry (in Angstrom), charge = 0, multiplicity = 1:

       Center              X                  Y                   Z               Mass
    ------------   -----------------  -----------------  -----------------  -----------------
      Gh(C)          -1.768029299090    -0.000032811794    -0.000035171328    12.000000000000
      Gh(H)          -2.134099299090    -0.618852811794    -0.813985171328     1.007825032230
      Gh(H)          -2.134649299090    -0.395672811794     0.942584828672     1.007825032230
      Gh(H)          -2.134959299090     1.013967188206    -0.128955171328     1.007825032230
      Gh(H)          -0.681969299090     0.000407188206     0.000264828672     1.007825032230
         N            1.595770700910     0.000097188206     0.000024828672    14.003074004430
         H            1.988810700910     0.376307188206    -0.852795171328     1.007825032230
         H            1.988860700910     0.550067188206     0.752574828672     1.007825032230
         H            1.987430700910    -0.927182811794     0.100384828672     1.007825032230

  Charge       = 0
  Multiplicity = 1
  Basis Set: AUG-CC-PVDZ
    Blend: AUG-CC-PVDZ
  Basis Set: (AUG-CC-PVDZ AUX)
    Blend: AUG-CC-PVDZ-JKFIT

    Orbital Energies [Eh]
    ---------------------

    Doubly Occupied:

       1A    -15.551952     2A     -1.146009     3A     -0.627696
       4A     -0.627677     5A     -0.431216

  @DF-RHF Final Energy:   -56.20582888679766

   => Energetics <=

    Nuclear Repulsion Energy =             11.9685014962021974
    One-Electron Energy =                 -99.5795585811052604
    Two-Electron Energy =                  31.4052281981054051
    Total Energy =                        -56.2058288867976614

  Dipole Moment: [D]
     X:     1.6587      Y:    -0.0016      Z:     0.0001     Total:     1.6587

    SAPT Results
  --------------------------------------------------------------------------------------------------------
    Electrostatics                 -5.73645428 [mEh]      -3.59967941 [kcal/mol]     -15.06105865 [kJ/mol]
      Elst10,r                     -5.30984342 [mEh]      -3.33197705 [kcal/mol]     -13.94099198 [kJ/mol]
      Elst12,r                     -0.42661086 [mEh]      -0.26770236 [kcal/mol]      -1.12006667 [kJ/mol]

    Exchange                       11.85244699 [mEh]       7.43752277 [kcal/mol]      31.11859527 [kJ/mol]
      Exch10                       10.77800947 [mEh]       6.76330305 [kcal/mol]      28.29765998 [kJ/mol]
      Exch10(S^2)                  10.67930487 [mEh]       6.70136498 [kcal/mol]      28.03851108 [kJ/mol]
      Exch11(S^2)                   0.11445522 [mEh]       0.07182173 [kcal/mol]       0.30050213 [kJ/mol]
      Exch12(S^2)                   0.95998230 [mEh]       0.60239798 [kcal/mol]       2.52043317 [kJ/mol]

    Induction                      -2.27014836 [mEh]      -1.42453960 [kcal/mol]      -5.96027369 [kJ/mol]
      Ind20,r                      -2.78428020 [mEh]      -1.74716220 [kcal/mol]      -7.31012665 [kJ/mol]
      Ind22                        -0.26235159 [mEh]      -0.16462811 [kcal/mol]      -0.68880399 [kJ/mol]
      Exch-Ind20,r                  1.66238373 [mEh]       1.04316154 [kcal/mol]       4.36458788 [kJ/mol]
      Exch-Ind22                    0.15663977 [mEh]       0.09829294 [kcal/mol]       0.41125766 [kJ/mol]
      delta HF,r (2)               -1.04254007 [mEh]      -0.65420377 [kcal/mol]      -2.73718858 [kJ/mol]

    Dispersion                     -3.43930763 [mEh]      -2.15819812 [kcal/mol]      -9.02990095 [kJ/mol]
      Disp20                       -3.75460561 [mEh]      -2.35605059 [kcal/mol]      -9.85771568 [kJ/mol]
      Disp21                       -0.00329237 [mEh]      -0.00206599 [kcal/mol]      -0.00864411 [kJ/mol]
      Disp22 (SDQ)                  0.05528599 [mEh]       0.03469248 [kcal/mol]       0.14515335 [kJ/mol]
      Disp22 (T)                   -0.41967303 [mEh]      -0.26334880 [kcal/mol]      -1.10185140 [kJ/mol]
      Est. Disp22 (T)              -0.47379024 [mEh]      -0.29730786 [kcal/mol]      -1.24393610 [kJ/mol]
      Exch-Disp20                   0.73709459 [mEh]       0.46253384 [kcal/mol]       1.93524158 [kJ/mol]

  Total HF                          3.30372951 [mEh]       2.07312157 [kcal/mol]       8.67394064 [kJ/mol]
  Total SAPT0                       0.28621849 [mEh]       0.17960482 [kcal/mol]       0.75146655 [kJ/mol]
  Total SAPT2                       0.82833332 [mEh]       0.51978701 [kcal/mol]       2.17478884 [kJ/mol]
  Total SAPT2+                      0.40653671 [mEh]       0.25510564 [kcal/mol]       1.06736198 [kJ/mol]

  Special recipe for scaled SAPT0 (see Manual):
    Electrostatics sSAPT0          -5.30984342 [mEh]      -3.33197705 [kcal/mol]     -13.94099198 [kJ/mol]
    Exchange sSAPT0                10.77800947 [mEh]       6.76330305 [kcal/mol]      28.29765998 [kJ/mol]
    Induction sSAPT0               -2.11791493 [mEh]      -1.32901168 [kcal/mol]      -5.56058488 [kJ/mol]
    Dispersion sSAPT0              -2.99688351 [mEh]      -1.88057280 [kcal/mol]      -7.86831658 [kJ/mol]
  Total sSAPT0                      0.35336761 [mEh]       0.22174152 [kcal/mol]       0.92776654 [kJ/mol]
  --------------------------------------------------------------------------------------------------------

*** Psi4 exiting successfully. Buy a developer a beer!
