                               Psi4 1.4a2.dev224

  ==> Input File <==

--------------------------------------------------------------------------
#Generated by lconvert.py for sapt job

memory 20 GB

molecule  {
0 1
  C      -2.024830    0.000030   -0.000010
  H      -2.390900   -0.618790   -0.813960
  H      -2.391450   -0.395610    0.942610
  H      -2.391760    1.014030   -0.128930
  H      -0.938770    0.000470    0.000290
--
0 1
  N       2.050770    0.000070   -0.000020
  H       2.443800    0.376280   -0.852850
  H       2.443860    0.550040    0.752530
  H       2.442430   -0.927220    0.100340
units angstrom
no_reorient
symmetry c1
}

set {
scf_type DF
basis aug-cc-pvdz
freeze_core True
guess SAD
}
energy('sapt2+')
--------------------------------------------------------------------------

  //              Dimer HF             //
    Molecular point group: c1
  Charge       = 0
  Multiplicity = 1
  Basis Set: AUG-CC-PVDZ
    Blend: AUG-CC-PVDZ
  Basis Set: (AUG-CC-PVDZ AUX)
    Blend: AUG-CC-PVDZ-JKFIT
  @DF-RHF Final Energy:   -96.40541683360462
    Total Energy =                        -96.4054168336046189
  //            Monomer A HF           //
    Molecular point group: c1
  Multiplicity = 1
  Basis Set: AUG-CC-PVDZ
    Blend: AUG-CC-PVDZ
  Basis Set: (AUG-CC-PVDZ AUX)
    Blend: AUG-CC-PVDZ-JKFIT
  @DF-RHF Final Energy:   -40.19965412205846
    Total Energy =                        -40.1996541220584618
  //            Monomer B HF           //
    Molecular point group: c1

    Geometry (in Angstrom), charge = 0, multiplicity = 1:

       Center              X                  Y                   Z               Mass
    ------------   -----------------  -----------------  -----------------  -----------------
      Gh(C)          -2.134643820428     0.000013847856     0.000001187259    12.000000000000
      Gh(H)          -2.500713820428    -0.618806152144    -0.813948812741     1.007825032230
      Gh(H)          -2.501263820428    -0.395626152144     0.942621187259     1.007825032230
      Gh(H)          -2.501573820428     1.014013847856    -0.128918812741     1.007825032230
      Gh(H)          -1.048583820428     0.000453847856     0.000301187259     1.007825032230
         N            1.940956179572     0.000053847856    -0.000008812741    14.003074004430
         H            2.333986179572     0.376263847856    -0.852838812741     1.007825032230
         H            2.334046179572     0.550023847856     0.752541187259     1.007825032230
         H            2.332616179572    -0.927236152144     0.100351187259     1.007825032230

  Charge       = 0
  Multiplicity = 1
  Basis Set: AUG-CC-PVDZ
    Blend: AUG-CC-PVDZ
  Basis Set: (AUG-CC-PVDZ AUX)
    Blend: AUG-CC-PVDZ-JKFIT

    Orbital Energies [Eh]
    ---------------------

    Doubly Occupied:

       1A    -15.551974     2A     -1.145968     3A     -0.627752
       4A     -0.627736     5A     -0.431287

  @DF-RHF Final Energy:   -56.20553445778476

   => Energetics <=

    Nuclear Repulsion Energy =             11.9684451538279095
    One-Electron Energy =                 -99.5785240965405336
    Two-Electron Energy =                  31.4045444849278645
    Total Energy =                        -56.2055344577847507

  Dipole Moment: [D]
     X:     1.6596      Y:    -0.0016      Z:     0.0001     Total:     1.6596

    SAPT Results
  --------------------------------------------------------------------------------------------------------
    Electrostatics                 -1.04322475 [mEh]      -0.65463341 [kcal/mol]      -2.73898620 [kJ/mol]
      Elst10,r                     -0.96761888 [mEh]      -0.60719002 [kcal/mol]      -2.54048302 [kJ/mol]
      Elst12,r                     -0.07560587 [mEh]      -0.04744340 [kcal/mol]      -0.19850317 [kJ/mol]

    Exchange                        1.29485539 [mEh]       0.81253402 [kcal/mol]       3.39964235 [kJ/mol]
      Exch10                        1.11081085 [mEh]       0.69704433 [kcal/mol]       2.91643349 [kJ/mol]
      Exch10(S^2)                   1.10956063 [mEh]       0.69625981 [kcal/mol]       2.91315103 [kJ/mol]
      Exch11(S^2)                   0.00214954 [mEh]       0.00134886 [kcal/mol]       0.00564362 [kJ/mol]
      Exch12(S^2)                   0.18189500 [mEh]       0.11414083 [kcal/mol]       0.47756524 [kJ/mol]

    Induction                      -0.38871655 [mEh]      -0.24392332 [kcal/mol]      -1.02057517 [kJ/mol]
      Ind20,r                      -0.38986144 [mEh]      -0.24464175 [kcal/mol]      -1.02358106 [kJ/mol]
      Ind22                        -0.02405597 [mEh]      -0.01509535 [kcal/mol]      -0.06315895 [kJ/mol]
      Exch-Ind20,r                  0.10996312 [mEh]       0.06900290 [kcal/mol]       0.28870813 [kJ/mol]
      Exch-Ind22                    0.00678515 [mEh]       0.00425775 [kcal/mol]       0.01781442 [kJ/mol]
      delta HF,r (2)               -0.09154741 [mEh]      -0.05744687 [kcal/mol]      -0.24035770 [kJ/mol]

    Dispersion                     -1.01987014 [mEh]      -0.63997818 [kcal/mol]      -2.67766869 [kJ/mol]
      Disp20                       -0.96663331 [mEh]      -0.60657156 [kcal/mol]      -2.53789541 [kJ/mol]
      Disp21                       -0.02861845 [mEh]      -0.01795835 [kcal/mol]      -0.07513774 [kJ/mol]
      Disp22 (SDQ)                  0.00821862 [mEh]       0.00515726 [kcal/mol]       0.02157797 [kJ/mol]
      Disp22 (T)                   -0.11604036 [mEh]      -0.07281642 [kcal/mol]      -0.30466392 [kJ/mol]
      Est. Disp22 (T)              -0.13199793 [mEh]      -0.08282995 [kcal/mol]      -0.34656051 [kJ/mol]
      Exch-Disp20                   0.09916094 [mEh]       0.06222443 [kcal/mol]       0.26034700 [kJ/mol]

  Total HF                         -0.22825376 [mEh]      -0.14323140 [kcal/mol]      -0.59928017 [kJ/mol]
  Total SAPT0                      -1.09572614 [mEh]      -0.68757853 [kcal/mol]      -2.87682857 [kJ/mol]
  Total SAPT2                      -1.00455829 [mEh]      -0.63036984 [kcal/mol]      -2.63746742 [kJ/mol]
  Total SAPT2+                     -1.15695605 [mEh]      -0.72600088 [kcal/mol]      -3.03758770 [kJ/mol]

  Special recipe for scaled SAPT0 (see Manual):
    Electrostatics sSAPT0          -0.96761888 [mEh]      -0.60719002 [kcal/mol]      -2.54048302 [kJ/mol]
    Exchange sSAPT0                 1.11081085 [mEh]       0.69704433 [kcal/mol]       2.91643349 [kJ/mol]
    Induction sSAPT0               -0.37107360 [mEh]      -0.23285220 [kcal/mol]      -0.97425361 [kJ/mol]
    Dispersion sSAPT0              -0.86713680 [mEh]      -0.54413656 [kcal/mol]      -2.27666736 [kJ/mol]
  Total sSAPT0                     -1.09501843 [mEh]      -0.68713444 [kcal/mol]      -2.87497050 [kJ/mol]
  --------------------------------------------------------------------------------------------------------

*** Psi4 exiting successfully. Buy a developer a beer!
