                               Psi4 1.4a2.dev224

  ==> Input File <==

--------------------------------------------------------------------------
#Generated by lconvert.py for sapt job

memory 20 GB

molecule  {
0 1
  C      -2.024830    0.000030   -0.000010
  H      -2.390900   -0.618790   -0.813960
  H      -2.391450   -0.395610    0.942610
  H      -2.391760    1.014030   -0.128930
  H      -0.938770    0.000470    0.000290
--
0 1
  N       4.470870   -0.000260   -0.000270
  H       4.863910    0.375950   -0.853100
  H       4.863960    0.549710    0.752280
  H       4.862530   -0.927540    0.100090
units angstrom
no_reorient
symmetry c1
}

set {
scf_type DF
basis aug-cc-pvdz
freeze_core True
guess SAD
}
energy('sapt2+')
--------------------------------------------------------------------------

  //              Dimer HF             //
    Molecular point group: c1
  Charge       = 0
  Multiplicity = 1
  Basis Set: AUG-CC-PVDZ
    Blend: AUG-CC-PVDZ
  Basis Set: (AUG-CC-PVDZ AUX)
    Blend: AUG-CC-PVDZ-JKFIT
  @DF-RHF Final Energy:   -96.40501001142890
    Total Energy =                        -96.4050100114288995
  //            Monomer A HF           //
    Molecular point group: c1
  Multiplicity = 1
  Basis Set: AUG-CC-PVDZ
    Blend: AUG-CC-PVDZ
  Basis Set: (AUG-CC-PVDZ AUX)
    Blend: AUG-CC-PVDZ-JKFIT
  @DF-RHF Final Energy:   -40.19959849726317
    Total Energy =                        -40.1995984972631746
  //            Monomer B HF           //
    Molecular point group: c1

    Geometry (in Angstrom), charge = 0, multiplicity = 1:

       Center              X                  Y                   Z               Mass
    ------------   -----------------  -----------------  -----------------  -----------------
      Gh(C)          -3.381124233329     0.000183510525     0.000129950545    12.000000000000
      Gh(H)          -3.747194233329    -0.618636489475    -0.813820049455     1.007825032230
      Gh(H)          -3.747744233329    -0.395456489475     0.942749950545     1.007825032230
      Gh(H)          -3.748054233329     1.014183510525    -0.128790049455     1.007825032230
      Gh(H)          -2.295064233329     0.000623510525     0.000429950545     1.007825032230
         N            3.114575766671    -0.000106489475    -0.000130049455    14.003074004430
         H            3.507615766671     0.376103510525    -0.852960049455     1.007825032230
         H            3.507665766671     0.549863510525     0.752419950545     1.007825032230
         H            3.506235766671    -0.927386489475     0.100229950545     1.007825032230

  Charge       = 0
  Multiplicity = 1
  Basis Set: AUG-CC-PVDZ
    Blend: AUG-CC-PVDZ
  Basis Set: (AUG-CC-PVDZ AUX)
    Blend: AUG-CC-PVDZ-JKFIT

    Orbital Energies [Eh]
    ---------------------

    Doubly Occupied:

       1A    -15.552054     2A     -1.145913     3A     -0.627770
       4A     -0.627751     5A     -0.431342

  @DF-RHF Final Energy:   -56.20535278251167

   => Energetics <=

    Nuclear Repulsion Energy =             11.9684677638412111
    One-Electron Energy =                 -99.5779843324626484
    Two-Electron Energy =                  31.4041637861097698
    Total Energy =                        -56.2053527825116745

  Dipole Moment: [D]
     X:     1.6595      Y:    -0.0016      Z:     0.0001     Total:     1.6595

    SAPT Results
  --------------------------------------------------------------------------------------------------------
    Electrostatics                 -0.04913247 [mEh]      -0.03083109 [kcal/mol]      -0.12899727 [kJ/mol]
      Elst10,r                     -0.04949831 [mEh]      -0.03106066 [kcal/mol]      -0.12995781 [kJ/mol]
      Elst12,r                      0.00036585 [mEh]       0.00022957 [kcal/mol]       0.00096054 [kJ/mol]

    Exchange                        0.00056409 [mEh]       0.00035397 [kcal/mol]       0.00148102 [kJ/mol]
      Exch10                        0.00040312 [mEh]       0.00025296 [kcal/mol]       0.00105839 [kJ/mol]
      Exch10(S^2)                   0.00040312 [mEh]       0.00025296 [kcal/mol]       0.00105839 [kJ/mol]
      Exch11(S^2)                  -0.00001399 [mEh]      -0.00000878 [kcal/mol]      -0.00003674 [kJ/mol]
      Exch12(S^2)                   0.00017497 [mEh]       0.00010979 [kcal/mol]       0.00045938 [kJ/mol]

    Induction                      -0.00936747 [mEh]      -0.00587818 [kcal/mol]      -0.02459429 [kJ/mol]
      Ind20,r                      -0.00955327 [mEh]      -0.00599477 [kcal/mol]      -0.02508211 [kJ/mol]
      Ind22                         0.00026957 [mEh]       0.00016915 [kcal/mol]       0.00070774 [kJ/mol]
      Exch-Ind20,r                  0.00002050 [mEh]       0.00001287 [kcal/mol]       0.00005383 [kJ/mol]
      Exch-Ind22                   -0.00000058 [mEh]      -0.00000036 [kcal/mol]      -0.00000152 [kJ/mol]
      delta HF,r (2)               -0.00010369 [mEh]      -0.00006507 [kcal/mol]      -0.00027224 [kJ/mol]

    Dispersion                     -0.03717959 [mEh]      -0.02333055 [kcal/mol]      -0.09761501 [kJ/mol]
      Disp20                       -0.03375107 [mEh]      -0.02117912 [kcal/mol]      -0.08861343 [kJ/mol]
      Disp21                        0.00052844 [mEh]       0.00033160 [kcal/mol]       0.00138741 [kJ/mol]
      Disp22 (SDQ)                  0.00074482 [mEh]       0.00046738 [kcal/mol]       0.00195551 [kJ/mol]
      Disp22 (T)                   -0.00466057 [mEh]      -0.00292455 [kcal/mol]      -0.01223632 [kJ/mol]
      Est. Disp22 (T)              -0.00475889 [mEh]      -0.00298625 [kcal/mol]      -0.01249445 [kJ/mol]
      Exch-Disp20                   0.00005711 [mEh]       0.00003584 [kcal/mol]       0.00014995 [kJ/mol]

  Total HF                         -0.05873165 [mEh]      -0.03685467 [kcal/mol]      -0.15419994 [kJ/mol]
  Total SAPT0                      -0.09242562 [mEh]      -0.05799795 [kcal/mol]      -0.24266342 [kJ/mol]
  Total SAPT2                      -0.09162981 [mEh]      -0.05749857 [kcal/mol]      -0.24057402 [kJ/mol]
  Total SAPT2+                     -0.09511544 [mEh]      -0.05968584 [kcal/mol]      -0.24972555 [kJ/mol]

  Special recipe for scaled SAPT0 (see Manual):
    Electrostatics sSAPT0          -0.04949831 [mEh]      -0.03106066 [kcal/mol]      -0.12995781 [kJ/mol]
    Exchange sSAPT0                 0.00040312 [mEh]       0.00025296 [kcal/mol]       0.00105839 [kJ/mol]
    Induction sSAPT0               -0.00963646 [mEh]      -0.00604697 [kcal/mol]      -0.02530052 [kJ/mol]
    Dispersion sSAPT0              -0.03369396 [mEh]      -0.02114328 [kcal/mol]      -0.08846348 [kJ/mol]
  Total sSAPT0                     -0.09242562 [mEh]      -0.05799795 [kcal/mol]      -0.24266342 [kJ/mol]
  --------------------------------------------------------------------------------------------------------

*** Psi4 exiting successfully. Buy a developer a beer!
