                               Psi4 1.4a2.dev224

  ==> Input File <==

--------------------------------------------------------------------------
#Generated by lconvert.py for sapt job

memory 20 GB

molecule  {
0 1
  C      -2.024830    0.000030   -0.000010
  H      -2.390900   -0.618790   -0.813960
  H      -2.391450   -0.395610    0.942610
  H      -2.391760    1.014030   -0.128930
  H      -0.938770    0.000470    0.000290
--
0 1
  N       3.616720   -0.000150   -0.000180
  H       4.009760    0.376070   -0.853010
  H       4.009810    0.549830    0.752370
  H       4.008380   -0.927430    0.100180
units angstrom
no_reorient
symmetry c1
}

set {
scf_type DF
basis aug-cc-pvdz
freeze_core True
guess SAD
}
energy('sapt2+')
--------------------------------------------------------------------------

  //              Dimer HF             //
    Molecular point group: c1
  Charge       = 0
  Multiplicity = 1
  Basis Set: AUG-CC-PVDZ
    Blend: AUG-CC-PVDZ
  Basis Set: (AUG-CC-PVDZ AUX)
    Blend: AUG-CC-PVDZ-JKFIT
  @DF-RHF Final Energy:   -96.40510099407503
    Total Energy =                        -96.4051009940750276
  //            Monomer A HF           //
    Molecular point group: c1
  Multiplicity = 1
  Basis Set: AUG-CC-PVDZ
    Blend: AUG-CC-PVDZ
  Basis Set: (AUG-CC-PVDZ AUX)
    Blend: AUG-CC-PVDZ-JKFIT
  @DF-RHF Final Energy:   -40.19960527731507
    Total Energy =                        -40.1996052773150723
  //            Monomer B HF           //
    Molecular point group: c1

    Geometry (in Angstrom), charge = 0, multiplicity = 1:

       Center              X                  Y                   Z               Mass
    ------------   -----------------  -----------------  -----------------  -----------------
      Gh(C)          -2.941191592414     0.000126244945     0.000083595762    12.000000000000
      Gh(H)          -3.307261592414    -0.618693755055    -0.813866404238     1.007825032230
      Gh(H)          -3.307811592414    -0.395513755055     0.942703595762     1.007825032230
      Gh(H)          -3.308121592414     1.014126244945    -0.128836404238     1.007825032230
      Gh(H)          -1.855131592414     0.000566244945     0.000383595762     1.007825032230
         N            2.700358407586    -0.000053755055    -0.000086404238    14.003074004430
         H            3.093398407586     0.376166244945    -0.852916404238     1.007825032230
         H            3.093448407586     0.549926244945     0.752463595762     1.007825032230
         H            3.092018407586    -0.927333755055     0.100273595762     1.007825032230

  Charge       = 0
  Multiplicity = 1
  Basis Set: AUG-CC-PVDZ
    Blend: AUG-CC-PVDZ
  Basis Set: (AUG-CC-PVDZ AUX)
    Blend: AUG-CC-PVDZ-JKFIT

    Orbital Energies [Eh]
    ---------------------

    Doubly Occupied:

       1A    -15.552073     2A     -1.145916     3A     -0.627777
       4A     -0.627753     5A     -0.431345

  @DF-RHF Final Energy:   -56.20536773566518

   => Energetics <=

    Nuclear Repulsion Energy =             11.9684311275057844
    One-Electron Energy =                 -99.5778705702370246
    Two-Electron Energy =                  31.4040717070660698
    Total Energy =                        -56.2053677356651775

  Dipole Moment: [D]
     X:     1.6585      Y:    -0.0016      Z:     0.0001     Total:     1.6585

    SAPT Results
  --------------------------------------------------------------------------------------------------------
    Electrostatics                 -0.10803029 [mEh]      -0.06779003 [kcal/mol]      -0.28363349 [kJ/mol]
      Elst10,r                     -0.10808299 [mEh]      -0.06782310 [kcal/mol]      -0.28377185 [kJ/mol]
      Elst12,r                      0.00005270 [mEh]       0.00003307 [kcal/mol]       0.00013836 [kJ/mol]

    Exchange                        0.00884887 [mEh]       0.00555275 [kcal/mol]       0.02323269 [kJ/mol]
      Exch10                        0.00668037 [mEh]       0.00419199 [kcal/mol]       0.01753930 [kJ/mol]
      Exch10(S^2)                   0.00668031 [mEh]       0.00419196 [kcal/mol]       0.01753914 [kJ/mol]
      Exch11(S^2)                  -0.00015072 [mEh]      -0.00009458 [kcal/mol]      -0.00039570 [kJ/mol]
      Exch12(S^2)                   0.00231921 [mEh]       0.00145533 [kcal/mol]       0.00608910 [kJ/mol]

    Induction                      -0.02610687 [mEh]      -0.01638231 [kcal/mol]      -0.06854358 [kJ/mol]
      Ind20,r                      -0.02628341 [mEh]      -0.01649309 [kcal/mol]      -0.06900709 [kJ/mol]
      Ind22                         0.00047948 [mEh]       0.00030088 [kcal/mol]       0.00125889 [kJ/mol]
      Exch-Ind20,r                  0.00043240 [mEh]       0.00027133 [kcal/mol]       0.00113526 [kJ/mol]
      Exch-Ind22                   -0.00000789 [mEh]      -0.00000495 [kcal/mol]      -0.00002071 [kJ/mol]
      delta HF,r (2)               -0.00072745 [mEh]      -0.00045648 [kcal/mol]      -0.00190993 [kJ/mol]

    Dispersion                     -0.09779187 [mEh]      -0.06136533 [kcal/mol]      -0.25675252 [kJ/mol]
      Disp20                       -0.08786885 [mEh]      -0.05513854 [kcal/mol]      -0.23069964 [kJ/mol]
      Disp21                        0.00005034 [mEh]       0.00003159 [kcal/mol]       0.00013218 [kJ/mol]
      Disp22 (SDQ)                  0.00146068 [mEh]       0.00091659 [kcal/mol]       0.00383501 [kJ/mol]
      Disp22 (T)                   -0.01165341 [mEh]      -0.00731262 [kcal/mol]      -0.03059601 [kJ/mol]
      Est. Disp22 (T)              -0.01230818 [mEh]      -0.00772350 [kcal/mol]      -0.03231513 [kJ/mol]
      Exch-Disp20                   0.00087415 [mEh]       0.00054853 [kcal/mol]       0.00229507 [kJ/mol]

  Total HF                         -0.12798109 [mEh]      -0.08030935 [kcal/mol]      -0.33601432 [kJ/mol]
  Total SAPT0                      -0.21497580 [mEh]      -0.13489935 [kcal/mol]      -0.56441889 [kJ/mol]
  Total SAPT2                      -0.21228301 [mEh]      -0.13320960 [kcal/mol]      -0.55734896 [kJ/mol]
  Total SAPT2+                     -0.22308017 [mEh]      -0.13998492 [kcal/mol]      -0.58569691 [kJ/mol]

  Special recipe for scaled SAPT0 (see Manual):
    Electrostatics sSAPT0          -0.10808299 [mEh]      -0.06782310 [kcal/mol]      -0.28377185 [kJ/mol]
    Exchange sSAPT0                 0.00668037 [mEh]       0.00419199 [kcal/mol]       0.01753930 [kJ/mol]
    Induction sSAPT0               -0.02657847 [mEh]      -0.01667824 [kcal/mol]      -0.06978176 [kJ/mol]
    Dispersion sSAPT0              -0.08699471 [mEh]      -0.05459000 [kcal/mol]      -0.22840457 [kJ/mol]
  Total sSAPT0                     -0.21497580 [mEh]      -0.13489935 [kcal/mol]      -0.56441889 [kJ/mol]
  --------------------------------------------------------------------------------------------------------

*** Psi4 exiting successfully. Buy a developer a beer!
