                               Psi4 1.4a2.dev224

  ==> Input File <==

--------------------------------------------------------------------------
#Generated by lconvert.py for sapt job

memory 20 GB

molecule  {
0 1
  C      -2.024830    0.000030   -0.000010
  H      -2.390900   -0.618790   -0.813960
  H      -2.391450   -0.395610    0.942610
  H      -2.391760    1.014030   -0.128930
  H      -0.938770    0.000470    0.000290
--
0 1
  N       1.908410    0.000090   -0.000010
  H       2.301450    0.376300   -0.852830
  H       2.301500    0.550060    0.752550
  H       2.300070   -0.927200    0.100350
units angstrom
no_reorient
symmetry c1
}

set {
scf_type DF
basis aug-cc-pvdz
freeze_core True
guess SAD
}
energy('sapt2+')
--------------------------------------------------------------------------

  //              Dimer HF             //
    Molecular point group: c1
  Charge       = 0
  Multiplicity = 1
  Basis Set: AUG-CC-PVDZ
    Blend: AUG-CC-PVDZ
  Basis Set: (AUG-CC-PVDZ AUX)
    Blend: AUG-CC-PVDZ-JKFIT
  @DF-RHF Final Energy:   -96.40532177559516
    Total Energy =                        -96.4053217755951550
  //            Monomer A HF           //
    Molecular point group: c1
  Multiplicity = 1
  Basis Set: AUG-CC-PVDZ
    Blend: AUG-CC-PVDZ
  Basis Set: (AUG-CC-PVDZ AUX)
    Blend: AUG-CC-PVDZ-JKFIT
  @DF-RHF Final Energy:   -40.19966911380792
    Total Energy =                        -40.1996691138079285
  //            Monomer B HF           //
    Molecular point group: c1

    Geometry (in Angstrom), charge = 0, multiplicity = 1:

       Center              X                  Y                   Z               Mass
    ------------   -----------------  -----------------  -----------------  -----------------
      Gh(C)          -2.061321160054     0.000003546793    -0.000004573006    12.000000000000
      Gh(H)          -2.427391160054    -0.618816453207    -0.813954573006     1.007825032230
      Gh(H)          -2.427941160054    -0.395636453207     0.942615426994     1.007825032230
      Gh(H)          -2.428251160054     1.014003546793    -0.128924573006     1.007825032230
      Gh(H)          -0.975261160054     0.000443546793     0.000295426994     1.007825032230
         N            1.871918839946     0.000063546793    -0.000004573006    14.003074004430
         H            2.264958839946     0.376273546793    -0.852824573006     1.007825032230
         H            2.265008839946     0.550033546793     0.752555426994     1.007825032230
         H            2.263578839946    -0.927226453207     0.100355426994     1.007825032230

  Charge       = 0
  Multiplicity = 1
  Basis Set: AUG-CC-PVDZ
    Blend: AUG-CC-PVDZ
  Basis Set: (AUG-CC-PVDZ AUX)
    Blend: AUG-CC-PVDZ-JKFIT

    Orbital Energies [Eh]
    ---------------------

    Doubly Occupied:

       1A    -15.551956     2A     -1.145976     3A     -0.627739
       4A     -0.627722     5A     -0.431273

  @DF-RHF Final Energy:   -56.20558928206906

   => Energetics <=

    Nuclear Repulsion Energy =             11.9684350544739413
    One-Electron Energy =                 -99.5787177975086735
    Two-Electron Energy =                  31.4046934609656745
    Total Energy =                        -56.2055892820690559

  Dipole Moment: [D]
     X:     1.6593      Y:    -0.0016      Z:     0.0001     Total:     1.6593

    SAPT Results
  --------------------------------------------------------------------------------------------------------
    Electrostatics                 -1.41694177 [mEh]      -0.88914438 [kcal/mol]      -3.72018010 [kJ/mol]
      Elst10,r                     -1.30687924 [mEh]      -0.82007911 [kcal/mol]      -3.43121098 [kJ/mol]
      Elst12,r                     -0.11006252 [mEh]      -0.06906528 [kcal/mol]      -0.28896912 [kJ/mol]

    Exchange                        2.02372035 [mEh]       1.26990369 [kcal/mol]       5.31327704 [kJ/mol]
      Exch10                        1.75603807 [mEh]       1.10193053 [kcal/mol]       4.61047732 [kJ/mol]
      Exch10(S^2)                   1.75300995 [mEh]       1.10003035 [kcal/mol]       4.60252698 [kJ/mol]
      Exch11(S^2)                   0.00711079 [mEh]       0.00446209 [kcal/mol]       0.01866937 [kJ/mol]
      Exch12(S^2)                   0.26057149 [mEh]       0.16351108 [kcal/mol]       0.68413034 [kJ/mol]

    Induction                      -0.53841445 [mEh]      -0.33786017 [kcal/mol]      -1.41360695 [kJ/mol]
      Ind20,r                      -0.54882887 [mEh]      -0.34439531 [kcal/mol]      -1.44094999 [kJ/mol]
      Ind22                        -0.03926452 [mEh]      -0.02463886 [kcal/mol]      -0.10308899 [kJ/mol]
      Exch-Ind20,r                  0.18714245 [mEh]       0.11743366 [kcal/mol]       0.49134245 [kJ/mol]
      Exch-Ind22                    0.01338862 [mEh]       0.00840148 [kcal/mol]       0.03515181 [kJ/mol]
      delta HF,r (2)               -0.15085213 [mEh]      -0.09466114 [kcal/mol]      -0.39606222 [kJ/mol]

    Dispersion                     -1.29486347 [mEh]      -0.81253910 [kcal/mol]      -3.39966358 [kJ/mol]
      Disp20                       -1.25202794 [mEh]      -0.78565939 [kcal/mol]      -3.28719890 [kJ/mol]
      Disp21                       -0.03413548 [mEh]      -0.02142034 [kcal/mol]      -0.08962269 [kJ/mol]
      Disp22 (SDQ)                  0.01165125 [mEh]       0.00731127 [kcal/mol]       0.03059034 [kJ/mol]
      Disp22 (T)                   -0.14851128 [mEh]      -0.09319224 [kcal/mol]      -0.38991631 [kJ/mol]
      Est. Disp22 (T)              -0.16961852 [mEh]      -0.10643723 [kcal/mol]      -0.44533337 [kJ/mol]
      Exch-Disp20                   0.14926722 [mEh]       0.09366659 [kcal/mol]       0.39190103 [kJ/mol]

  Total HF                         -0.06337972 [mEh]      -0.03977137 [kcal/mol]      -0.16640343 [kJ/mol]
  Total SAPT0                      -1.16614043 [mEh]      -0.73176417 [kcal/mol]      -3.06170129 [kJ/mol]
  Total SAPT2                      -1.03439659 [mEh]      -0.64909366 [kcal/mol]      -2.71580788 [kJ/mol]
  Total SAPT2+                     -1.22649935 [mEh]      -0.76963996 [kcal/mol]      -3.22017359 [kJ/mol]

  Special recipe for scaled SAPT0 (see Manual):
    Electrostatics sSAPT0          -1.30687924 [mEh]      -0.82007911 [kcal/mol]      -3.43121098 [kJ/mol]
    Exchange sSAPT0                 1.75603807 [mEh]       1.10193053 [kcal/mol]       4.61047732 [kJ/mol]
    Induction sSAPT0               -0.51156707 [mEh]      -0.32101318 [kcal/mol]      -1.34311915 [kJ/mol]
    Dispersion sSAPT0              -1.10198585 [mEh]      -0.69150656 [kcal/mol]      -2.89326346 [kJ/mol]
  Total sSAPT0                     -1.16439409 [mEh]      -0.73066832 [kcal/mol]      -3.05711627 [kJ/mol]
  --------------------------------------------------------------------------------------------------------

*** Psi4 exiting successfully. Buy a developer a beer!
