                               Psi4 1.4a2.dev224

  ==> Input File <==

--------------------------------------------------------------------------
#Generated by lconvert.py for sapt job

memory 20 GB

molecule  {
0 1
  C      -2.024830    0.000030   -0.000010
  H      -2.390900   -0.618790   -0.813960
  H      -2.391450   -0.395610    0.942610
  H      -2.391760    1.014030   -0.128930
  H      -0.938770    0.000470    0.000290
--
0 1
  N       1.766050    0.000100    0.000010
  H       2.159090    0.376320   -0.852820
  H       2.159140    0.550080    0.752560
  H       2.157710   -0.927180    0.100370
units angstrom
no_reorient
symmetry c1
}

set {
scf_type DF
basis aug-cc-pvdz
freeze_core True
guess SAD
}
energy('sapt2+')
--------------------------------------------------------------------------

  //              Dimer HF             //
    Molecular point group: c1
  Charge       = 0
  Multiplicity = 1
  Basis Set: AUG-CC-PVDZ
    Blend: AUG-CC-PVDZ
  Basis Set: (AUG-CC-PVDZ AUX)
    Blend: AUG-CC-PVDZ-JKFIT
  @DF-RHF Final Energy:   -96.40508761666737
    Total Energy =                        -96.4050876166673731
  //            Monomer A HF           //
    Molecular point group: c1
  Multiplicity = 1
  Basis Set: AUG-CC-PVDZ
    Blend: AUG-CC-PVDZ
  Basis Set: (AUG-CC-PVDZ AUX)
    Blend: AUG-CC-PVDZ-JKFIT
  @DF-RHF Final Energy:   -40.19968651812682
    Total Energy =                        -40.1996865181268248
  //            Monomer B HF           //
    Molecular point group: c1

    Geometry (in Angstrom), charge = 0, multiplicity = 1:

       Center              X                  Y                   Z               Mass
    ------------   -----------------  -----------------  -----------------  -----------------
      Gh(C)          -1.987998194813    -0.000002518340    -0.000014264335    12.000000000000
      Gh(H)          -2.354068194813    -0.618822518340    -0.813964264335     1.007825032230
      Gh(H)          -2.354618194813    -0.395642518340     0.942605735665     1.007825032230
      Gh(H)          -2.354928194813     1.013997481660    -0.128934264335     1.007825032230
      Gh(H)          -0.901938194813     0.000437481660     0.000285735665     1.007825032230
         N            1.802881805187     0.000067481660     0.000005735665    14.003074004430
         H            2.195921805187     0.376287481660    -0.852824264335     1.007825032230
         H            2.195971805187     0.550047481660     0.752555735665     1.007825032230
         H            2.194541805187    -0.927212518340     0.100365735665     1.007825032230

  Charge       = 0
  Multiplicity = 1
  Basis Set: AUG-CC-PVDZ
    Blend: AUG-CC-PVDZ
  Basis Set: (AUG-CC-PVDZ AUX)
    Blend: AUG-CC-PVDZ-JKFIT

    Orbital Energies [Eh]
    ---------------------

    Doubly Occupied:

       1A    -15.551948     2A     -1.145985     3A     -0.627728
       4A     -0.627705     5A     -0.431257

  @DF-RHF Final Energy:   -56.20565000269918

   => Energetics <=

    Nuclear Repulsion Energy =             11.9684311275057809
    One-Electron Energy =                 -99.5789162599105566
    Two-Electron Energy =                  31.4048351297055959
    Total Energy =                        -56.2056500026991799

  Dipole Moment: [D]
     X:     1.6590      Y:    -0.0016      Z:     0.0001     Total:     1.6590

    SAPT Results
  --------------------------------------------------------------------------------------------------------
    Electrostatics                 -1.96201532 [mEh]      -1.23118320 [kcal/mol]      -5.15127051 [kJ/mol]
      Elst10,r                     -1.80401821 [mEh]      -1.13203852 [kcal/mol]      -4.73644916 [kJ/mol]
      Elst12,r                     -0.15799711 [mEh]      -0.09914468 [kcal/mol]      -0.41482134 [kJ/mol]

    Exchange                        3.15711427 [mEh]       1.98111911 [kcal/mol]       8.28900238 [kJ/mol]
      Exch10                        2.77127269 [mEh]       1.73899987 [kcal/mol]       7.27597544 [kJ/mol]
      Exch10(S^2)                   2.76397642 [mEh]       1.73442139 [kcal/mol]       7.25681910 [kJ/mol]
      Exch11(S^2)                   0.01664715 [mEh]       0.01044624 [kcal/mol]       0.04370708 [kJ/mol]
      Exch12(S^2)                   0.36919444 [mEh]       0.23167301 [kcal/mol]       0.96931986 [kJ/mol]

    Induction                      -0.75614935 [mEh]      -0.47449088 [kcal/mol]      -1.98526984 [kJ/mol]
      Ind20,r                      -0.79184388 [mEh]      -0.49688953 [kcal/mol]      -2.07898581 [kJ/mol]
      Ind22                        -0.06352126 [mEh]      -0.03986019 [kcal/mol]      -0.16677504 [kJ/mol]
      Exch-Ind20,r                  0.32064837 [mEh]       0.20120989 [kcal/mol]       0.84186218 [kJ/mol]
      Exch-Ind22                    0.02572223 [mEh]       0.01614094 [kcal/mol]       0.06753370 [kJ/mol]
      delta HF,r (2)               -0.24715481 [mEh]      -0.15509199 [kcal/mol]      -0.64890487 [kJ/mol]

    Dispersion                     -1.64623758 [mEh]      -1.03302968 [kcal/mol]      -4.32219616 [kJ/mol]
      Disp20                       -1.63148269 [mEh]      -1.02377084 [kcal/mol]      -4.28345721 [kJ/mol]
      Disp21                       -0.03793265 [mEh]      -0.02380310 [kcal/mol]      -0.09959217 [kJ/mol]
      Disp22 (SDQ)                  0.01702471 [mEh]       0.01068317 [kcal/mol]       0.04469837 [kJ/mol]
      Disp22 (T)                   -0.18790497 [mEh]      -0.11791215 [kcal/mol]      -0.49334442 [kJ/mol]
      Est. Disp22 (T)              -0.21780921 [mEh]      -0.13667734 [kcal/mol]      -0.57185801 [kJ/mol]
      Exch-Disp20                   0.22396227 [mEh]       0.14053845 [kcal/mol]       0.58801286 [kJ/mol]

  Total HF                          0.24890416 [mEh]       0.15618972 [kcal/mol]       0.65349778 [kJ/mol]
  Total SAPT0                      -1.15861626 [mEh]      -0.72704268 [kcal/mol]      -3.04194657 [kJ/mol]
  Total SAPT2                      -0.96857081 [mEh]      -0.60778736 [kcal/mol]      -2.54298232 [kJ/mol]
  Total SAPT2+                     -1.20728797 [mEh]      -0.75758464 [kcal/mol]      -3.16973413 [kJ/mol]

  Special recipe for scaled SAPT0 (see Manual):
    Electrostatics sSAPT0          -1.80401821 [mEh]      -1.13203852 [kcal/mol]      -4.73644916 [kJ/mol]
    Exchange sSAPT0                 2.77127269 [mEh]       1.73899987 [kcal/mol]       7.27597544 [kJ/mol]
    Induction sSAPT0               -0.71580429 [mEh]      -0.44917398 [kcal/mol]      -1.87934391 [kJ/mol]
    Dispersion sSAPT0              -1.40574211 [mEh]      -0.88211649 [kcal/mol]      -3.69077539 [kJ/mol]
  Total sSAPT0                     -1.15429192 [mEh]      -0.72432912 [kcal/mol]      -3.03059303 [kJ/mol]
  --------------------------------------------------------------------------------------------------------

*** Psi4 exiting successfully. Buy a developer a beer!
