                               Psi4 1.4a2.dev224

  ==> Input File <==

--------------------------------------------------------------------------
#Generated by lconvert.py for sapt job

memory 20 GB

molecule  {
0 1
  C      -2.024830    0.000030   -0.000010
  H      -2.390900   -0.618790   -0.813960
  H      -2.391450   -0.395610    0.942610
  H      -2.391760    1.014030   -0.128930
  H      -0.938770    0.000470    0.000290
--
0 1
  N       2.193130    0.000050   -0.000040
  H       2.586160    0.376260   -0.852860
  H       2.586220    0.550020    0.752520
  H       2.584790   -0.927240    0.100320
units angstrom
no_reorient
symmetry c1
}

set {
scf_type DF
basis aug-cc-pvdz
freeze_core True
guess SAD
}
energy('sapt2+')
--------------------------------------------------------------------------

  //              Dimer HF             //
    Molecular point group: c1
  Charge       = 0
  Multiplicity = 1
  Basis Set: AUG-CC-PVDZ
    Blend: AUG-CC-PVDZ
  Basis Set: (AUG-CC-PVDZ AUX)
    Blend: AUG-CC-PVDZ-JKFIT
  @DF-RHF Final Energy:   -96.40543686311268
    Total Energy =                        -96.4054368631126835
  //            Monomer A HF           //
    Molecular point group: c1
  Multiplicity = 1
  Basis Set: AUG-CC-PVDZ
    Blend: AUG-CC-PVDZ
  Basis Set: (AUG-CC-PVDZ AUX)
    Blend: AUG-CC-PVDZ-JKFIT
  @DF-RHF Final Energy:   -40.19964227050484
    Total Energy =                        -40.1996422705048388
  //            Monomer B HF           //
    Molecular point group: c1

    Geometry (in Angstrom), charge = 0, multiplicity = 1:

       Center              X                  Y                   Z               Mass
    ------------   -----------------  -----------------  -----------------  -----------------
      Gh(C)          -2.207966785669     0.000024148918     0.000010878588    12.000000000000
      Gh(H)          -2.574036785669    -0.618795851082    -0.813939121412     1.007825032230
      Gh(H)          -2.574586785669    -0.395615851082     0.942630878588     1.007825032230
      Gh(H)          -2.574896785669     1.014024148918    -0.128909121412     1.007825032230
      Gh(H)          -1.121906785669     0.000464148918     0.000310878588     1.007825032230
         N            2.009993214331     0.000044148918    -0.000019121412    14.003074004430
         H            2.403023214331     0.376254148918    -0.852839121412     1.007825032230
         H            2.403083214331     0.550014148918     0.752540878588     1.007825032230
         H            2.401653214331    -0.927245851082     0.100340878588     1.007825032230

  Charge       = 0
  Multiplicity = 1
  Basis Set: AUG-CC-PVDZ
    Blend: AUG-CC-PVDZ
  Basis Set: (AUG-CC-PVDZ AUX)
    Blend: AUG-CC-PVDZ-JKFIT

    Orbital Energies [Eh]
    ---------------------

    Doubly Occupied:

       1A    -15.551999     2A     -1.145960     3A     -0.627764
       4A     -0.627748     5A     -0.431301

  @DF-RHF Final Energy:   -56.20548970863081

   => Energetics <=

    Nuclear Repulsion Energy =             11.9684491204296588
    One-Electron Energy =                 -99.5783343698438728
    Two-Electron Energy =                  31.4043955407834012
    Total Energy =                        -56.2054897086308216

  Dipole Moment: [D]
     X:     1.6600      Y:    -0.0016      Z:     0.0001     Total:     1.6600

    SAPT Results
  --------------------------------------------------------------------------------------------------------
    Electrostatics                 -0.78390019 [mEh]      -0.49190479 [kcal/mol]      -2.05812965 [kJ/mol]
      Elst10,r                     -0.73268131 [mEh]      -0.45976446 [kcal/mol]      -1.92365451 [kJ/mol]
      Elst12,r                     -0.05121888 [mEh]      -0.03214033 [kcal/mol]      -0.13447514 [kJ/mol]

    Exchange                        0.82667158 [mEh]       0.51874425 [kcal/mol]       2.17042594 [kJ/mol]
      Exch10                        0.70121515 [mEh]       0.44001915 [kcal/mol]       1.84104012 [kJ/mol]
      Exch10(S^2)                   0.70070176 [mEh]       0.43969699 [kcal/mol]       1.83969221 [kJ/mol]
      Exch11(S^2)                  -0.00020542 [mEh]      -0.00012890 [kcal/mol]      -0.00053932 [kJ/mol]
      Exch12(S^2)                   0.12566185 [mEh]       0.07885400 [kcal/mol]       0.32992514 [kJ/mol]

    Induction                      -0.28462015 [mEh]      -0.17860184 [kcal/mol]      -0.74727010 [kJ/mol]
      Ind20,r                      -0.28325053 [mEh]      -0.17774239 [kcal/mol]      -0.74367416 [kJ/mol]
      Ind22                        -0.01454391 [mEh]      -0.00912644 [kcal/mol]      -0.03818504 [kJ/mol]
      Exch-Ind20,r                  0.06507910 [mEh]       0.04083775 [kcal/mol]       0.17086516 [kJ/mol]
      Exch-Ind22                    0.00334158 [mEh]       0.00209687 [kcal/mol]       0.00877332 [kJ/mol]
      delta HF,r (2)               -0.05524639 [mEh]      -0.03466763 [kcal/mol]      -0.14504937 [kJ/mol]

    Dispersion                     -0.80546021 [mEh]      -0.50543391 [kcal/mol]      -2.11473549 [kJ/mol]
      Disp20                       -0.75080037 [mEh]      -0.47113435 [kcal/mol]      -1.97122611 [kJ/mol]
      Disp21                       -0.02282687 [mEh]      -0.01432408 [kcal/mol]      -0.05993194 [kJ/mol]
      Disp22 (SDQ)                  0.00603376 [mEh]       0.00378624 [kcal/mol]       0.01584162 [kJ/mol]
      Disp22 (T)                   -0.09242908 [mEh]      -0.05800012 [kcal/mol]      -0.24267250 [kJ/mol]
      Est. Disp22 (T)              -0.10355909 [mEh]      -0.06498431 [kcal/mol]      -0.27189436 [kJ/mol]
      Exch-Disp20                   0.06569237 [mEh]       0.04122259 [kcal/mol]       0.17247530 [kJ/mol]

  Total HF                         -0.30488398 [mEh]      -0.19131758 [kcal/mol]      -0.80047277 [kJ/mol]
  Total SAPT0                      -0.98999198 [mEh]      -0.62122935 [kcal/mol]      -2.59922358 [kJ/mol]
  Total SAPT2                      -0.92695676 [mEh]      -0.58167415 [kcal/mol]      -2.43372463 [kJ/mol]
  Total SAPT2+                     -1.04730896 [mEh]      -0.65719630 [kcal/mol]      -2.74970930 [kJ/mol]

  Special recipe for scaled SAPT0 (see Manual):
    Electrostatics sSAPT0          -0.73268131 [mEh]      -0.45976446 [kcal/mol]      -1.92365451 [kJ/mol]
    Exchange sSAPT0                 0.70121515 [mEh]       0.44001915 [kcal/mol]       1.84104012 [kJ/mol]
    Induction sSAPT0               -0.27327467 [mEh]      -0.17148244 [kcal/mol]      -0.71748254 [kJ/mol]
    Dispersion sSAPT0              -0.68496350 [mEh]      -0.42982109 [kcal/mol]      -1.79837143 [kJ/mol]
  Total sSAPT0                     -0.98970433 [mEh]      -0.62104884 [kcal/mol]      -2.59846835 [kJ/mol]
  --------------------------------------------------------------------------------------------------------

*** Psi4 exiting successfully. Buy a developer a beer!
