                               Psi4 1.4a2.dev224

  ==> Input File <==

--------------------------------------------------------------------------
#Generated by lconvert.py for sapt job

memory 20 GB

molecule  {
0 1
  C      -2.024830    0.000030   -0.000010
  H      -2.390900   -0.618790   -0.813960
  H      -2.391450   -0.395610    0.942610
  H      -2.391760    1.014030   -0.128930
  H      -0.938770    0.000470    0.000290
--
0 1
  N       2.762560   -0.000030   -0.000100
  H       3.155600    0.376180   -0.852920
  H       3.155650    0.549940    0.752460
  H       3.154220   -0.927310    0.100270
units angstrom
no_reorient
symmetry c1
}

set {
scf_type DF
basis aug-cc-pvdz
freeze_core True
guess SAD
}
energy('sapt2+')
--------------------------------------------------------------------------

  //              Dimer HF             //
    Molecular point group: c1
  Charge       = 0
  Multiplicity = 1
  Basis Set: AUG-CC-PVDZ
    Blend: AUG-CC-PVDZ
  Basis Set: (AUG-CC-PVDZ AUX)
    Blend: AUG-CC-PVDZ-JKFIT
  @DF-RHF Final Energy:   -96.40530018559093
    Total Energy =                        -96.4053001855909315
  //            Monomer A HF           //
    Molecular point group: c1
  Multiplicity = 1
  Basis Set: AUG-CC-PVDZ
    Blend: AUG-CC-PVDZ
  Basis Set: (AUG-CC-PVDZ AUX)
    Blend: AUG-CC-PVDZ-JKFIT
  @DF-RHF Final Energy:   -40.19962127080677
    Total Energy =                        -40.1996212708067731
  //            Monomer B HF           //
    Molecular point group: c1

    Geometry (in Angstrom), charge = 0, multiplicity = 1:

       Center              X                  Y                   Z               Mass
    ------------   -----------------  -----------------  -----------------  -----------------
      Gh(C)          -2.501253800969     0.000065048303     0.000041476909    12.000000000000
      Gh(H)          -2.867323800969    -0.618754951697    -0.813908523091     1.007825032230
      Gh(H)          -2.867873800969    -0.395574951697     0.942661476909     1.007825032230
      Gh(H)          -2.868183800969     1.014065048303    -0.128878523091     1.007825032230
      Gh(H)          -1.415193800969     0.000505048303     0.000341476909     1.007825032230
         N            2.286136199031     0.000005048303    -0.000048523091    14.003074004430
         H            2.679176199031     0.376215048303    -0.852868523091     1.007825032230
         H            2.679226199031     0.549975048303     0.752511476909     1.007825032230
         H            2.677796199031    -0.927274951697     0.100321476909     1.007825032230

  Charge       = 0
  Multiplicity = 1
  Basis Set: AUG-CC-PVDZ
    Blend: AUG-CC-PVDZ
  Basis Set: (AUG-CC-PVDZ AUX)
    Blend: AUG-CC-PVDZ-JKFIT

    Orbital Energies [Eh]
    ---------------------

    Doubly Occupied:

       1A    -15.552069     2A     -1.145931     3A     -0.627779
       4A     -0.627759     5A     -0.431338

  @DF-RHF Final Energy:   -56.20540075990531

   => Energetics <=

    Nuclear Repulsion Energy =             11.9684677604453871
    One-Electron Energy =                 -99.5779868042525322
    Two-Electron Energy =                  31.4041182839018305
    Total Energy =                        -56.2054007599053094

  Dipole Moment: [D]
     X:     1.6599      Y:    -0.0016      Z:     0.0001     Total:     1.6599

    SAPT Results
  --------------------------------------------------------------------------------------------------------
    Electrostatics                 -0.30292175 [mEh]      -0.19008627 [kcal/mol]      -0.79532095 [kJ/mol]
      Elst10,r                     -0.29383648 [mEh]      -0.18438518 [kcal/mol]      -0.77146758 [kJ/mol]
      Elst12,r                     -0.00908527 [mEh]      -0.00570109 [kcal/mol]      -0.02385337 [kJ/mol]

    Exchange                        0.13469278 [mEh]       0.08452099 [kcal/mol]       0.35363583 [kJ/mol]
      Exch10                        0.10896929 [mEh]       0.06837926 [kcal/mol]       0.28609882 [kJ/mol]
      Exch10(S^2)                   0.10895536 [mEh]       0.06837052 [kcal/mol]       0.28606226 [kJ/mol]
      Exch11(S^2)                  -0.00103042 [mEh]      -0.00064660 [kcal/mol]      -0.00270538 [kJ/mol]
      Exch12(S^2)                   0.02675391 [mEh]       0.01678834 [kcal/mol]       0.07024239 [kJ/mol]

    Induction                      -0.09445282 [mEh]      -0.05927004 [kcal/mol]      -0.24798586 [kJ/mol]
      Ind20,r                      -0.09459667 [mEh]      -0.05936031 [kcal/mol]      -0.24836352 [kJ/mol]
      Ind22                        -0.00128220 [mEh]      -0.00080459 [kcal/mol]      -0.00336642 [kJ/mol]
      Exch-Ind20,r                  0.00863615 [mEh]       0.00541926 [kcal/mol]       0.02267420 [kJ/mol]
      Exch-Ind22                    0.00011706 [mEh]       0.00007345 [kcal/mol]       0.00030734 [kJ/mol]
      delta HF,r (2)               -0.00732716 [mEh]      -0.00459786 [kcal/mol]      -0.01923746 [kJ/mol]

    Dispersion                     -0.32345193 [mEh]      -0.20296915 [kcal/mol]      -0.84922292 [kJ/mol]
      Disp20                       -0.29136297 [mEh]      -0.18283302 [kcal/mol]      -0.76497338 [kJ/mol]
      Disp21                       -0.00642299 [mEh]      -0.00403049 [kcal/mol]      -0.01686357 [kJ/mol]
      Disp22 (SDQ)                  0.00278842 [mEh]       0.00174976 [kcal/mol]       0.00732100 [kJ/mol]
      Disp22 (T)                   -0.03706801 [mEh]      -0.02326052 [kcal/mol]      -0.09732203 [kJ/mol]
      Est. Disp22 (T)              -0.04077490 [mEh]      -0.02558664 [kcal/mol]      -0.10705449 [kJ/mol]
      Exch-Disp20                   0.01232052 [mEh]       0.00773124 [kcal/mol]       0.03234752 [kJ/mol]

  Total HF                         -0.27815488 [mEh]      -0.17454482 [kcal/mol]      -0.73029553 [kJ/mol]
  Total SAPT0                      -0.55719733 [mEh]      -0.34964660 [kcal/mol]      -1.46292139 [kJ/mol]
  Total SAPT2                      -0.54172425 [mEh]      -0.33993710 [kcal/mol]      -1.42229683 [kJ/mol]
  Total SAPT2+                     -0.58613373 [mEh]      -0.36780447 [kcal/mol]      -1.53889389 [kJ/mol]

  Special recipe for scaled SAPT0 (see Manual):
    Electrostatics sSAPT0          -0.29383648 [mEh]      -0.18438518 [kcal/mol]      -0.77146758 [kJ/mol]
    Exchange sSAPT0                 0.10896929 [mEh]       0.06837926 [kcal/mol]       0.28609882 [kJ/mol]
    Induction sSAPT0               -0.09328437 [mEh]      -0.05853683 [kcal/mol]      -0.24491808 [kJ/mol]
    Dispersion sSAPT0              -0.27903773 [mEh]      -0.17509882 [kcal/mol]      -0.73261346 [kJ/mol]
  Total sSAPT0                     -0.55718930 [mEh]      -0.34964156 [kcal/mol]      -1.46290030 [kJ/mol]
  --------------------------------------------------------------------------------------------------------

*** Psi4 exiting successfully. Buy a developer a beer!
