                               Psi4 1.4a2.dev224

  ==> Input File <==

--------------------------------------------------------------------------
#Generated by lconvert.py for sapt job

memory 20 GB

molecule  {
0 1
  C      -2.024830    0.000030   -0.000010
  H      -2.390900   -0.618790   -0.813960
  H      -2.391450   -0.395610    0.942610
  H      -2.391760    1.014030   -0.128930
  H      -0.938770    0.000470    0.000290
--
0 1
  N       1.623690    0.000120    0.000020
  H       2.016730    0.376340   -0.852800
  H       2.016780    0.550100    0.752570
  H       2.015350   -0.927160    0.100380
units angstrom
no_reorient
symmetry c1
}

set {
scf_type DF
basis aug-cc-pvdz
freeze_core True
guess SAD
}
energy('sapt2+')
--------------------------------------------------------------------------

  //              Dimer HF             //
    Molecular point group: c1
  Charge       = 0
  Multiplicity = 1
  Basis Set: AUG-CC-PVDZ
    Blend: AUG-CC-PVDZ
  Basis Set: (AUG-CC-PVDZ AUX)
    Blend: AUG-CC-PVDZ-JKFIT
  @DF-RHF Final Energy:   -96.40461339235000
    Total Energy =                        -96.4046133923500008
  //            Monomer A HF           //
    Molecular point group: c1
  Multiplicity = 1
  Basis Set: AUG-CC-PVDZ
    Blend: AUG-CC-PVDZ
  Basis Set: (AUG-CC-PVDZ AUX)
    Blend: AUG-CC-PVDZ-JKFIT
  @DF-RHF Final Energy:   -40.19970528969990
    Total Energy =                        -40.1997052896998994
  //            Monomer B HF           //
    Molecular point group: c1

    Geometry (in Angstrom), charge = 0, multiplicity = 1:

       Center              X                  Y                   Z               Mass
    ------------   -----------------  -----------------  -----------------  -----------------
      Gh(C)          -1.914675229572    -0.000012819403    -0.000019719734    12.000000000000
      Gh(H)          -2.280745229572    -0.618832819403    -0.813969719734     1.007825032230
      Gh(H)          -2.281295229572    -0.395652819403     0.942600280266     1.007825032230
      Gh(H)          -2.281605229572     1.013987180597    -0.128939719734     1.007825032230
      Gh(H)          -0.828615229572     0.000427180597     0.000280280266     1.007825032230
         N            1.733844770428     0.000077180597     0.000010280266    14.003074004430
         H            2.126884770428     0.376297180597    -0.852809719734     1.007825032230
         H            2.126934770428     0.550057180597     0.752560280266     1.007825032230
         H            2.125504770428    -0.927202819403     0.100370280266     1.007825032230

  Charge       = 0
  Multiplicity = 1
  Basis Set: AUG-CC-PVDZ
    Blend: AUG-CC-PVDZ
  Basis Set: (AUG-CC-PVDZ AUX)
    Blend: AUG-CC-PVDZ-JKFIT

    Orbital Energies [Eh]
    ---------------------

    Doubly Occupied:

       1A    -15.551946     2A     -1.145995     3A     -0.627717
       4A     -0.627694     5A     -0.431242

  @DF-RHF Final Energy:   -56.20571099327064

   => Energetics <=

    Nuclear Repulsion Energy =             11.9684648595122347
    One-Electron Energy =                 -99.5791635801098209
    Two-Electron Energy =                  31.4049877273269402
    Total Energy =                        -56.2057109932706425

  Dipole Moment: [D]
     X:     1.6588      Y:    -0.0016      Z:     0.0001     Total:     1.6588

    SAPT Results
  --------------------------------------------------------------------------------------------------------
    Electrostatics                 -2.76473054 [mEh]      -1.73489460 [kcal/mol]      -7.25879902 [kJ/mol]
      Elst10,r                     -2.54120996 [mEh]      -1.59463333 [kcal/mol]      -6.67194583 [kJ/mol]
      Elst12,r                     -0.22352058 [mEh]      -0.14026128 [kcal/mol]      -0.58685319 [kJ/mol]

    Exchange                        4.91753165 [mEh]       3.08579770 [kcal/mol]      12.91097756 [kJ/mol]
      Exch10                        4.36657986 [mEh]       2.74007023 [kcal/mol]      11.46445385 [kJ/mol]
      Exch10(S^2)                   4.34909015 [mEh]       2.72909527 [kcal/mol]      11.41853461 [kJ/mol]
      Exch11(S^2)                   0.03394094 [mEh]       0.02129826 [kcal/mol]       0.08911193 [kJ/mol]
      Exch12(S^2)                   0.51701084 [mEh]       0.32442920 [kcal/mol]       1.35741178 [kJ/mol]

    Induction                      -1.07653529 [mEh]      -0.67553609 [kcal/mol]      -2.82644300 [kJ/mol]
      Ind20,r                      -1.17270869 [mEh]      -0.73588581 [kcal/mol]      -3.07894624 [kJ/mol]
      Ind22                        -0.10225701 [mEh]      -0.06416724 [kcal/mol]      -0.26847575 [kJ/mol]
      Exch-Ind20,r                  0.55278106 [mEh]       0.34687535 [kcal/mol]       1.45132648 [kJ/mol]
      Exch-Ind22                    0.04820101 [mEh]       0.03024659 [kcal/mol]       0.12655173 [kJ/mol]
      delta HF,r (2)               -0.40255165 [mEh]      -0.25260498 [kcal/mol]      -1.05689922 [kJ/mol]

    Dispersion                     -2.10057103 [mEh]      -1.31812822 [kcal/mol]      -5.51504849 [kJ/mol]
      Disp20                       -2.13919268 [mEh]      -1.34236367 [kcal/mol]      -5.61644961 [kJ/mol]
      Disp21                       -0.03742037 [mEh]      -0.02348164 [kcal/mol]      -0.09824718 [kJ/mol]
      Disp22 (SDQ)                  0.02518000 [mEh]       0.01580069 [kcal/mol]       0.06611008 [kJ/mol]
      Disp22 (T)                   -0.24752025 [mEh]      -0.15532130 [kcal/mol]      -0.64986433 [kJ/mol]
      Est. Disp22 (T)              -0.28388900 [mEh]      -0.17814304 [kcal/mol]      -0.74535048 [kJ/mol]
      Exch-Disp20                   0.33475103 [mEh]       0.21005944 [kcal/mol]       0.87888870 [kJ/mol]

  Total HF                          0.80289062 [mEh]       0.50382147 [kcal/mol]       2.10798903 [kJ/mol]
  Total SAPT0                      -1.00155103 [mEh]      -0.62848276 [kcal/mol]      -2.62957188 [kJ/mol]
  Total SAPT2                      -0.72817583 [mEh]      -0.45693723 [kcal/mol]      -1.91182538 [kJ/mol]
  Total SAPT2+                     -1.02430521 [mEh]      -0.64276122 [kcal/mol]      -2.68931296 [kJ/mol]

  Special recipe for scaled SAPT0 (see Manual):
    Electrostatics sSAPT0          -2.54120996 [mEh]      -1.59463333 [kcal/mol]      -6.67194583 [kJ/mol]
    Exchange sSAPT0                 4.36657986 [mEh]       2.74007023 [kcal/mol]      11.46445385 [kJ/mol]
    Induction sSAPT0               -1.01578346 [mEh]      -0.63741374 [kcal/mol]      -2.66693910 [kJ/mol]
    Dispersion sSAPT0              -1.80038682 [mEh]      -1.12975979 [kcal/mol]      -4.72691495 [kJ/mol]
  Total sSAPT0                     -0.99080038 [mEh]      -0.62173662 [kcal/mol]      -2.60134603 [kJ/mol]
  --------------------------------------------------------------------------------------------------------

*** Psi4 exiting successfully. Buy a developer a beer!
