                               Psi4 1.4a2.dev224

  ==> Input File <==

--------------------------------------------------------------------------
#Generated by lconvert.py for sapt job

memory 20 GB

molecule  {
0 1
  C      -2.024830    0.000030   -0.000010
  H      -2.390900   -0.618790   -0.813960
  H      -2.391450   -0.395610    0.942610
  H      -2.391760    1.014030   -0.128930
  H      -0.938770    0.000470    0.000290
--
0 1
  N       1.054250    0.000200    0.000080
  H       1.447290    0.376410   -0.852740
  H       1.447350    0.550170    0.752630
  H       1.445910   -0.927080    0.100440
units angstrom
no_reorient
symmetry c1
}

set {
scf_type DF
basis aug-cc-pvdz
freeze_core True
guess SAD
}
energy('sapt2+')
--------------------------------------------------------------------------

  //              Dimer HF             //
    Molecular point group: c1
  Charge       = 0
  Multiplicity = 1
  Basis Set: AUG-CC-PVDZ
    Blend: AUG-CC-PVDZ
  Basis Set: (AUG-CC-PVDZ AUX)
    Blend: AUG-CC-PVDZ-JKFIT
  @DF-RHF Final Energy:   -96.39594199102261
    Total Energy =                        -96.3959419910226103
  //            Monomer A HF           //
    Molecular point group: c1
  Multiplicity = 1
  Basis Set: AUG-CC-PVDZ
    Blend: AUG-CC-PVDZ
  Basis Set: (AUG-CC-PVDZ AUX)
    Blend: AUG-CC-PVDZ-JKFIT
  @DF-RHF Final Energy:   -40.19976898053056
    Total Energy =                        -40.1997689805305569
  //            Monomer B HF           //
    Molecular point group: c1

    Geometry (in Angstrom), charge = 0, multiplicity = 1:

       Center              X                  Y                   Z               Mass
    ------------   -----------------  -----------------  -----------------  -----------------
      Gh(C)          -1.621383673475    -0.000053413920    -0.000050622922    12.000000000000
      Gh(H)          -1.987453673475    -0.618873413920    -0.814000622922     1.007825032230
      Gh(H)          -1.988003673475    -0.395693413920     0.942569377078     1.007825032230
      Gh(H)          -1.988313673475     1.013946586080    -0.128970622922     1.007825032230
      Gh(H)          -0.535323673475     0.000386586080     0.000249377078     1.007825032230
         N            1.457696326525     0.000116586080     0.000039377078    14.003074004430
         H            1.850736326525     0.376326586080    -0.852780622922     1.007825032230
         H            1.850796326525     0.550086586080     0.752589377078     1.007825032230
         H            1.849356326525    -0.927163413920     0.100399377078     1.007825032230

  Charge       = 0
  Multiplicity = 1
  Basis Set: AUG-CC-PVDZ
    Blend: AUG-CC-PVDZ
  Basis Set: (AUG-CC-PVDZ AUX)
    Blend: AUG-CC-PVDZ-JKFIT

    Orbital Energies [Eh]
    ---------------------

    Doubly Occupied:

       1A    -15.552033     2A     -1.146025     3A     -0.627674
       4A     -0.627654     5A     -0.431187

  @DF-RHF Final Energy:   -56.20595896872506

   => Energetics <=

    Nuclear Repulsion Energy =             11.9684874280868812
    One-Electron Energy =                 -99.5797475467219613
    Two-Electron Energy =                  31.4053011499100201
    Total Energy =                        -56.2059589687250565

  Dipole Moment: [D]
     X:     1.6583      Y:    -0.0016      Z:     0.0001     Total:     1.6583

    SAPT Results
  --------------------------------------------------------------------------------------------------------
    Electrostatics                -12.42582072 [mEh]      -7.79732022 [kcal/mol]     -32.62398781 [kJ/mol]
      Elst10,r                    -11.67293823 [mEh]      -7.32487933 [kcal/mol]     -30.64729511 [kJ/mol]
      Elst12,r                     -0.75288249 [mEh]      -0.47244089 [kcal/mol]      -1.97669270 [kJ/mol]

    Exchange                       28.21714193 [mEh]      17.70652389 [kcal/mol]      74.08409594 [kJ/mol]
      Exch10                       26.28436211 [mEh]      16.49368624 [kcal/mol]      69.00958322 [kJ/mol]
      Exch10(S^2)                  25.74579241 [mEh]      16.15572864 [kcal/mol]      67.59556865 [kJ/mol]
      Exch11(S^2)                   0.32496229 [mEh]       0.20391691 [kcal/mol]       0.85318837 [kJ/mol]
      Exch12(S^2)                   1.60781753 [mEh]       1.00892073 [kcal/mol]       4.22132435 [kJ/mol]

    Induction                      -5.03498425 [mEh]      -3.15950032 [kcal/mol]     -13.21934933 [kJ/mol]
      Ind20,r                      -7.24495057 [mEh]      -4.54627512 [kcal/mol]     -19.02161510 [kJ/mol]
      Ind22                        -0.66457326 [mEh]      -0.41702602 [kcal/mol]      -1.74483687 [kJ/mol]
      Exch-Ind20,r                  4.96085034 [mEh]       3.11298059 [kcal/mol]      13.02471077 [kJ/mol]
      Exch-Ind22                    0.45505466 [mEh]       0.28555111 [kcal/mol]       1.19474584 [kJ/mol]
      delta HF,r (2)               -2.54136541 [mEh]      -1.59473087 [kcal/mol]      -6.67235398 [kJ/mol]

    Dispersion                     -5.76541957 [mEh]      -3.61785540 [kcal/mol]     -15.13710698 [kJ/mol]
      Disp20                       -6.79914312 [mEh]      -4.26652672 [kcal/mol]     -17.85114781 [kJ/mol]
      Disp21                        0.14584684 [mEh]       0.09152027 [kcal/mol]       0.38292083 [kJ/mol]
      Disp22 (SDQ)                  0.11844960 [mEh]       0.07432824 [kcal/mol]       0.31098937 [kJ/mol]
      Disp22 (T)                   -0.70270690 [mEh]      -0.44095524 [kcal/mol]      -1.84495671 [kJ/mol]
      Est. Disp22 (T)              -0.80476972 [mEh]      -0.50500063 [kcal/mol]      -2.11292262 [kJ/mol]
      Exch-Disp20                   1.57419684 [mEh]       0.98782343 [kcal/mol]       4.13305324 [kJ/mol]

  Total HF                          9.78595823 [mEh]       6.14078150 [kcal/mol]      25.69302980 [kJ/mol]
  Total SAPT0                       4.56101195 [mEh]       2.86207821 [kcal/mol]      11.97493524 [kJ/mol]
  Total SAPT2                       5.53139068 [mEh]       3.47100005 [kcal/mol]      14.52266423 [kJ/mol]
  Total SAPT2+                      4.99091739 [mEh]       3.13184795 [kcal/mol]      13.10365181 [kJ/mol]

  Special recipe for scaled SAPT0 (see Manual):
    Electrostatics sSAPT0         -11.67293823 [mEh]      -7.32487933 [kcal/mol]     -30.64729511 [kJ/mol]
    Exchange sSAPT0                26.28436211 [mEh]      16.49368624 [kcal/mol]      69.00958322 [kJ/mol]
    Induction sSAPT0               -4.50758341 [mEh]      -2.82855129 [kcal/mol]     -11.83465860 [kJ/mol]
    Dispersion sSAPT0              -5.12407462 [mEh]      -3.21540537 [kcal/mol]     -13.45325606 [kJ/mol]
  Total sSAPT0                      4.97976585 [mEh]       3.12485025 [kcal/mol]      13.07437345 [kJ/mol]
  --------------------------------------------------------------------------------------------------------

*** Psi4 exiting successfully. Buy a developer a beer!
