                               Psi4 1.4a2.dev224

  ==> Input File <==

--------------------------------------------------------------------------
#Generated by lconvert.py for sapt job

memory 20 GB

molecule  {
0 1
  C       1.433270    0.673520    0.000070
  H       2.314590    1.298680   -0.000900
  H       0.472720    1.168200    0.001070
  C       1.527250   -0.655290    0.000050
  H       0.645880   -1.280300    0.001020
  H       2.487500   -1.150700   -0.000950
--
0 1
  C      -4.399960   -0.161410   -0.552980
  H      -4.690530    0.884640   -0.553110
  H      -3.809960   -0.372820   -1.439510
  H      -3.810910   -0.372850    0.334180
  H      -5.290130   -0.782570   -0.553460
units angstrom
no_reorient
symmetry c1
}

set {
scf_type DF
basis aug-cc-pvdz
freeze_core True
guess SAD
}
energy('sapt2+')
--------------------------------------------------------------------------

  //              Dimer HF             //
    Molecular point group: c1
  Charge       = 0
  Multiplicity = 1
  Basis Set: AUG-CC-PVDZ
    Blend: AUG-CC-PVDZ
  Basis Set: (AUG-CC-PVDZ AUX)
    Blend: AUG-CC-PVDZ-JKFIT
  @DF-RHF Final Energy:  -118.24317126774540
    Total Energy =                       -118.2431712677453959
  //            Monomer A HF           //
    Molecular point group: c1
  Multiplicity = 1
  Basis Set: AUG-CC-PVDZ
    Blend: AUG-CC-PVDZ
  Basis Set: (AUG-CC-PVDZ AUX)
    Blend: AUG-CC-PVDZ-JKFIT
  @DF-RHF Final Energy:   -78.04355120045059
    Total Energy =                        -78.0435512004505938
  //            Monomer B HF           //
    Molecular point group: c1

    Geometry (in Angstrom), charge = 0, multiplicity = 1:

       Center              X                  Y                   Z               Mass
    ------------   -----------------  -----------------  -----------------  -----------------
      Gh(C)           2.092457673435     0.726413733346     0.201222139432    12.000000000000
      Gh(H)           2.973777673435     1.351573733346     0.200252139432     1.007825032230
      Gh(H)           1.131907673435     1.221093733346     0.202222139432     1.007825032230
      Gh(C)           2.186437673435    -0.602396266654     0.201202139432    12.000000000000
      Gh(H)           1.305067673435    -1.227406266654     0.202172139432     1.007825032230
      Gh(H)           3.146687673435    -1.097806266654     0.200202139432     1.007825032230
         C           -3.740772326565    -0.108516266654    -0.351827860568    12.000000000000
         H           -4.031342326565     0.937533733346    -0.351957860568     1.007825032230
         H           -3.150772326565    -0.319926266654    -1.238357860568     1.007825032230
         H           -3.151722326565    -0.319956266654     0.535332139432     1.007825032230
         H           -4.630942326565    -0.729676266654    -0.352307860568     1.007825032230

  Charge       = 0
  Multiplicity = 1
  Basis Set: AUG-CC-PVDZ
    Blend: AUG-CC-PVDZ
  Basis Set: (AUG-CC-PVDZ AUX)
    Blend: AUG-CC-PVDZ-JKFIT

    Orbital Energies [Eh]
    ---------------------

    Doubly Occupied:

       1A    -11.213721     2A     -0.945143     3A     -0.544916
       4A     -0.544880     5A     -0.544609

  @DF-RHF Final Energy:   -40.19960323539647

   => Energetics <=

    Nuclear Repulsion Energy =             13.4894810490328290
    One-Electron Energy =                 -79.7916329344606794
    Two-Electron Energy =                  26.1025486500313804
    Total Energy =                        -40.1996032353964665

  Dipole Moment: [D]
     X:    -0.0012      Y:     0.0007      Z:    -0.0002     Total:     0.0014

    SAPT Results
  --------------------------------------------------------------------------------------------------------
    Electrostatics                 -0.01596696 [mEh]      -0.01001942 [kcal/mol]      -0.04192124 [kJ/mol]
      Elst10,r                     -0.01705469 [mEh]      -0.01070198 [kcal/mol]      -0.04477709 [kJ/mol]
      Elst12,r                      0.00108774 [mEh]       0.00068257 [kcal/mol]       0.00285585 [kJ/mol]

    Exchange                        0.00121003 [mEh]       0.00075931 [kcal/mol]       0.00317694 [kJ/mol]
      Exch10                        0.00098240 [mEh]       0.00061647 [kcal/mol]       0.00257929 [kJ/mol]
      Exch10(S^2)                   0.00098240 [mEh]       0.00061647 [kcal/mol]       0.00257929 [kJ/mol]
      Exch11(S^2)                  -0.00000510 [mEh]      -0.00000320 [kcal/mol]      -0.00001339 [kJ/mol]
      Exch12(S^2)                   0.00023273 [mEh]       0.00014604 [kcal/mol]       0.00061104 [kJ/mol]

    Induction                      -0.00078584 [mEh]      -0.00049312 [kcal/mol]      -0.00206322 [kJ/mol]
      Ind20,r                      -0.00052550 [mEh]      -0.00032976 [kcal/mol]      -0.00137970 [kJ/mol]
      Ind22                        -0.00003078 [mEh]      -0.00001931 [kcal/mol]      -0.00008081 [kJ/mol]
      Exch-Ind20,r                  0.00007757 [mEh]       0.00004868 [kcal/mol]       0.00020366 [kJ/mol]
      Exch-Ind22                    0.00000454 [mEh]       0.00000285 [kcal/mol]       0.00001193 [kJ/mol]
      delta HF,r (2)               -0.00031168 [mEh]      -0.00019558 [kcal/mol]      -0.00081830 [kJ/mol]

    Dispersion                     -0.12273691 [mEh]      -0.07701858 [kcal/mol]      -0.32224573 [kJ/mol]
      Disp20                       -0.12036217 [mEh]      -0.07552840 [kcal/mol]      -0.31601082 [kJ/mol]
      Disp21                        0.00540864 [mEh]       0.00339398 [kcal/mol]       0.01420039 [kJ/mol]
      Disp22 (SDQ)                  0.00780564 [mEh]       0.00489811 [kcal/mol]       0.02049370 [kJ/mol]
      Disp22 (T)                   -0.01545185 [mEh]      -0.00969618 [kcal/mol]      -0.04056883 [kJ/mol]
      Est. Disp22 (T)              -0.01576342 [mEh]      -0.00989169 [kcal/mol]      -0.04138685 [kJ/mol]
      Exch-Disp20                   0.00017439 [mEh]       0.00010943 [kcal/mol]       0.00045785 [kJ/mol]

  Total HF                         -0.01683190 [mEh]      -0.01056218 [kcal/mol]      -0.04419214 [kJ/mol]
  Total SAPT0                      -0.13701968 [mEh]      -0.08598115 [kcal/mol]      -0.35974511 [kJ/mol]
  Total SAPT2                      -0.13573054 [mEh]      -0.08517220 [kcal/mol]      -0.35636049 [kJ/mol]
  Total SAPT2+                     -0.13827968 [mEh]      -0.08677181 [kcal/mol]      -0.36305325 [kJ/mol]

  Special recipe for scaled SAPT0 (see Manual):
    Electrostatics sSAPT0          -0.01705469 [mEh]      -0.01070198 [kcal/mol]      -0.04477709 [kJ/mol]
    Exchange sSAPT0                 0.00098240 [mEh]       0.00061647 [kcal/mol]       0.00257929 [kJ/mol]
    Induction sSAPT0               -0.00075961 [mEh]      -0.00047666 [kcal/mol]      -0.00199434 [kJ/mol]
    Dispersion sSAPT0              -0.12018778 [mEh]      -0.07541897 [kcal/mol]      -0.31555297 [kJ/mol]
  Total sSAPT0                     -0.13701968 [mEh]      -0.08598115 [kcal/mol]      -0.35974511 [kJ/mol]
  --------------------------------------------------------------------------------------------------------

*** Psi4 exiting successfully. Buy a developer a beer!
