                               Psi4 1.4a2.dev224

  ==> Input File <==

--------------------------------------------------------------------------
#Generated by lconvert.py for sapt job

memory 20 GB

molecule  {
0 1
  C       1.433270    0.673520    0.000070
  H       2.314590    1.298680   -0.000900
  H       0.472720    1.168200    0.001070
  C       1.527250   -0.655290    0.000050
  H       0.645880   -1.280300    0.001020
  H       2.487500   -1.150700   -0.000950
--
0 1
  C      -2.368210   -0.014730   -0.000100
  H      -2.658780    1.031320   -0.000230
  H      -1.778210   -0.226140   -0.886630
  H      -1.779150   -0.226180    0.887060
  H      -3.258380   -0.635890   -0.000570
units angstrom
no_reorient
symmetry c1
}

set {
scf_type DF
basis aug-cc-pvdz
freeze_core True
guess SAD
}
energy('sapt2+')
--------------------------------------------------------------------------

  //              Dimer HF             //
    Molecular point group: c1
  Charge       = 0
  Multiplicity = 1
  Basis Set: AUG-CC-PVDZ
    Blend: AUG-CC-PVDZ
  Basis Set: (AUG-CC-PVDZ AUX)
    Blend: AUG-CC-PVDZ-JKFIT
  @DF-RHF Final Energy:  -118.24281734933106
    Total Energy =                       -118.2428173493310624
  //            Monomer A HF           //
    Molecular point group: c1
  Multiplicity = 1
  Basis Set: AUG-CC-PVDZ
    Blend: AUG-CC-PVDZ
  Basis Set: (AUG-CC-PVDZ AUX)
    Blend: AUG-CC-PVDZ-JKFIT
  @DF-RHF Final Energy:   -78.04367252851515
    Total Energy =                        -78.0436725285151454
  //            Monomer B HF           //
    Molecular point group: c1

    Geometry (in Angstrom), charge = 0, multiplicity = 1:

       Center              X                  Y                   Z               Mass
    ------------   -----------------  -----------------  -----------------  -----------------
      Gh(C)           1.353245644990     0.673047363434     0.000067526638    12.000000000000
      Gh(H)           2.234565644990     1.298207363434    -0.000902473362     1.007825032230
      Gh(H)           0.392695644990     1.167727363434     0.001067526638     1.007825032230
      Gh(C)           1.447225644990    -0.655762636566     0.000047526638    12.000000000000
      Gh(H)           0.565855644990    -1.280772636566     0.001017526638     1.007825032230
      Gh(H)           2.407475644990    -1.151172636566    -0.000952473362     1.007825032230
         C           -2.448234355010    -0.015202636566    -0.000102473362    12.000000000000
         H           -2.738804355010     1.030847363434    -0.000232473362     1.007825032230
         H           -1.858234355010    -0.226612636566    -0.886632473362     1.007825032230
         H           -1.859174355010    -0.226652636566     0.887057526638     1.007825032230
         H           -3.338404355010    -0.636362636566    -0.000572473362     1.007825032230

  Charge       = 0
  Multiplicity = 1
  Basis Set: AUG-CC-PVDZ
    Blend: AUG-CC-PVDZ
  Basis Set: (AUG-CC-PVDZ AUX)
    Blend: AUG-CC-PVDZ-JKFIT

    Orbital Energies [Eh]
    ---------------------

    Doubly Occupied:

       1A    -11.213459     2A     -0.945098     3A     -0.544920
       4A     -0.544851     5A     -0.544594

  @DF-RHF Final Energy:   -40.19981723042205

   => Energetics <=

    Nuclear Repulsion Energy =             13.4894581578144965
    One-Electron Energy =                 -79.7927090123134235
    Two-Electron Energy =                  26.1034336240768781
    Total Energy =                        -40.1998172304220489

  Dipole Moment: [D]
     X:     0.0003      Y:     0.0007      Z:    -0.0000     Total:     0.0007

    SAPT Results
  --------------------------------------------------------------------------------------------------------
    Electrostatics                 -0.69984139 [mEh]      -0.43915710 [kcal/mol]      -1.83743332 [kJ/mol]
      Elst10,r                     -0.63230282 [mEh]      -0.39677601 [kcal/mol]      -1.66011083 [kJ/mol]
      Elst12,r                     -0.06753857 [mEh]      -0.04238109 [kcal/mol]      -0.17732249 [kJ/mol]

    Exchange                        1.61203502 [mEh]       1.01156725 [kcal/mol]       4.23239737 [kJ/mol]
      Exch10                        1.42785245 [mEh]       0.89599094 [kcal/mol]       3.74882608 [kJ/mol]
      Exch10(S^2)                   1.42669495 [mEh]       0.89526460 [kcal/mol]       3.74578707 [kJ/mol]
      Exch11(S^2)                   0.02192213 [mEh]       0.01375634 [kcal/mol]       0.05755654 [kJ/mol]
      Exch12(S^2)                   0.16226045 [mEh]       0.10181997 [kcal/mol]       0.42601475 [kJ/mol]

    Induction                      -0.12864527 [mEh]      -0.08072612 [kcal/mol]      -0.33775811 [kJ/mol]
      Ind20,r                      -0.18367639 [mEh]      -0.11525868 [kcal/mol]      -0.48224230 [kJ/mol]
      Ind22                        -0.02876036 [mEh]      -0.01804740 [kcal/mol]      -0.07551031 [kJ/mol]
      Exch-Ind20,r                  0.14851744 [mEh]       0.09319610 [kcal/mol]       0.38993248 [kJ/mol]
      Exch-Ind22                    0.02325511 [mEh]       0.01459280 [kcal/mol]       0.06105628 [kJ/mol]
      delta HF,r (2)               -0.08798107 [mEh]      -0.05520895 [kcal/mol]      -0.23099427 [kJ/mol]

    Dispersion                     -2.03037375 [mEh]      -1.27407877 [kcal/mol]      -5.33074555 [kJ/mol]
      Disp20                       -2.04954365 [mEh]      -1.28610806 [kcal/mol]      -5.38107612 [kJ/mol]
      Disp21                        0.02716425 [mEh]       0.01704582 [kcal/mol]       0.07131973 [kJ/mol]
      Disp22 (SDQ)                  0.11030831 [mEh]       0.06921951 [kcal/mol]       0.28961444 [kJ/mol]
      Disp22 (T)                   -0.23530612 [mEh]      -0.14765682 [kcal/mol]      -0.61779613 [kJ/mol]
      Est. Disp22 (T)              -0.25497265 [mEh]      -0.15999776 [kcal/mol]      -0.66943061 [kJ/mol]
      Exch-Disp20                   0.13666999 [mEh]       0.08576171 [kcal/mol]       0.35882701 [kJ/mol]

  Total HF                          0.67240961 [mEh]       0.42194340 [kcal/mol]       1.76541118 [kJ/mol]
  Total SAPT0                      -1.24046406 [mEh]      -0.77840295 [kcal/mol]      -3.25683794 [kJ/mol]
  Total SAPT2                      -1.12932530 [mEh]      -0.70866232 [kcal/mol]      -2.96504316 [kJ/mol]
  Total SAPT2+                     -1.24682539 [mEh]      -0.78239474 [kcal/mol]      -3.27353961 [kJ/mol]

  Special recipe for scaled SAPT0 (see Manual):
    Electrostatics sSAPT0          -0.63230282 [mEh]      -0.39677601 [kcal/mol]      -1.66011083 [kJ/mol]
    Exchange sSAPT0                 1.42785245 [mEh]       0.89599094 [kcal/mol]       3.74882608 [kJ/mol]
    Induction sSAPT0               -0.12277824 [mEh]      -0.07704451 [kcal/mol]      -0.32235424 [kJ/mol]
    Dispersion sSAPT0              -1.91254075 [mEh]      -1.20013744 [kcal/mol]      -5.02137504 [kJ/mol]
  Total sSAPT0                     -1.23976936 [mEh]      -0.77796702 [kcal/mol]      -3.25501402 [kJ/mol]
  --------------------------------------------------------------------------------------------------------

*** Psi4 exiting successfully. Buy a developer a beer!
