                               Psi4 1.4a2.dev224

  ==> Input File <==

--------------------------------------------------------------------------
#Generated by lconvert.py for sapt job

memory 20 GB

molecule  {
0 1
  C       1.433270    0.673520    0.000070
  H       2.314590    1.298680   -0.000900
  H       0.472720    1.168200    0.001070
  C       1.527250   -0.655290    0.000050
  H       0.645880   -1.280300    0.001020
  H       2.487500   -1.150700   -0.000950
--
0 1
  C      -1.747450    0.030080    0.168830
  H      -2.038020    1.076130    0.168690
  H      -1.157440   -0.181330   -0.717710
  H      -1.158390   -0.181360    1.055990
  H      -2.637610   -0.591070    0.168350
units angstrom
no_reorient
symmetry c1
}

set {
scf_type DF
basis aug-cc-pvdz
freeze_core True
guess SAD
}
energy('sapt2+')
--------------------------------------------------------------------------

  //              Dimer HF             //
    Molecular point group: c1
  Charge       = 0
  Multiplicity = 1
  Basis Set: AUG-CC-PVDZ
    Blend: AUG-CC-PVDZ
  Basis Set: (AUG-CC-PVDZ AUX)
    Blend: AUG-CC-PVDZ-JKFIT
  @DF-RHF Final Energy:  -118.23729709114815
    Total Energy =                       -118.2372970911481502
  //            Monomer A HF           //
    Molecular point group: c1
  Multiplicity = 1
  Basis Set: AUG-CC-PVDZ
    Blend: AUG-CC-PVDZ
  Basis Set: (AUG-CC-PVDZ AUX)
    Blend: AUG-CC-PVDZ-JKFIT
  @DF-RHF Final Energy:   -78.04373799508060
    Total Energy =                        -78.0437379950806189
  //            Monomer B HF           //
    Molecular point group: c1

    Geometry (in Angstrom), charge = 0, multiplicity = 1:

       Center              X                  Y                   Z               Mass
    ------------   -----------------  -----------------  -----------------  -----------------
      Gh(C)           1.127394016482     0.656743679333    -0.061393605482    12.000000000000
      Gh(H)           2.008714016482     1.281903679333    -0.062363605482     1.007825032230
      Gh(H)           0.166844016482     1.151423679333    -0.060393605482     1.007825032230
      Gh(C)           1.221374016482    -0.672066320667    -0.061413605482    12.000000000000
      Gh(H)           0.340004016482    -1.297076320667    -0.060443605482     1.007825032230
      Gh(H)           2.181624016482    -1.167476320667    -0.062413605482     1.007825032230
         C           -2.053325983518     0.013303679333     0.107366394518    12.000000000000
         H           -2.343895983518     1.059353679333     0.107226394518     1.007825032230
         H           -1.463315983518    -0.198106320667    -0.779173605482     1.007825032230
         H           -1.464265983518    -0.198136320667     0.994526394518     1.007825032230
         H           -2.943485983518    -0.607846320667     0.106886394518     1.007825032230

  Charge       = 0
  Multiplicity = 1
  Basis Set: AUG-CC-PVDZ
    Blend: AUG-CC-PVDZ
  Basis Set: (AUG-CC-PVDZ AUX)
    Blend: AUG-CC-PVDZ-JKFIT

    Orbital Energies [Eh]
    ---------------------

    Doubly Occupied:

       1A    -11.213302     2A     -0.945075     3A     -0.544936
       4A     -0.544798     5A     -0.544587

  @DF-RHF Final Energy:   -40.20001240452878

   => Energetics <=

    Nuclear Repulsion Energy =             13.4894652156511583
    One-Electron Energy =                 -79.7935628705277225
    Two-Electron Energy =                  26.1040852503477723
    Total Energy =                        -40.2000124045287848

  Dipole Moment: [D]
     X:    -0.0001      Y:     0.0002      Z:     0.0003     Total:     0.0003

    SAPT Results
  --------------------------------------------------------------------------------------------------------
    Electrostatics                 -4.12565591 [mEh]      -2.58888817 [kcal/mol]     -10.83190810 [kJ/mol]
      Elst10,r                     -3.70461001 [mEh]      -2.32467788 [kcal/mol]      -9.72645223 [kJ/mol]
      Elst12,r                     -0.42104590 [mEh]      -0.26421029 [kcal/mol]      -1.10545587 [kJ/mol]

    Exchange                       12.07427051 [mEh]       7.57671914 [kcal/mol]      31.70099287 [kJ/mol]
      Exch10                       11.07514844 [mEh]       6.94976057 [kcal/mol]      29.07779823 [kJ/mol]
      Exch10(S^2)                  11.01745076 [mEh]       6.91355473 [kcal/mol]      28.92631298 [kJ/mol]
      Exch11(S^2)                   0.21275545 [mEh]       0.13350606 [kcal/mol]       0.55858937 [kJ/mol]
      Exch12(S^2)                   0.78636662 [mEh]       0.49345250 [kcal/mol]       2.06460527 [kJ/mol]

    Induction                      -0.94766410 [mEh]      -0.59466820 [kcal/mol]      -2.48809175 [kJ/mol]
      Ind20,r                      -1.82423701 [mEh]      -1.14472601 [kcal/mol]      -4.78953361 [kJ/mol]
      Ind22                        -0.22452056 [mEh]      -0.14088878 [kcal/mol]      -0.58947865 [kJ/mol]
      Exch-Ind20,r                  1.57695871 [mEh]       0.98955653 [kcal/mol]       4.14030453 [kJ/mol]
      Exch-Ind22                    0.19408643 [mEh]       0.12179107 [kcal/mol]       0.50957386 [kJ/mol]
      delta HF,r (2)               -0.66995168 [mEh]      -0.42040102 [kcal/mol]      -1.75895788 [kJ/mol]

    Dispersion                     -5.63907200 [mEh]      -3.53857110 [kcal/mol]     -14.80538150 [kJ/mol]
      Disp20                       -6.20558347 [mEh]      -3.89406242 [kcal/mol]     -16.29275716 [kJ/mol]
      Disp21                        0.13979166 [mEh]       0.08772059 [kcal/mol]       0.36702295 [kJ/mol]
      Disp22 (SDQ)                  0.32139687 [mEh]       0.20167958 [kcal/mol]       0.84382736 [kJ/mol]
      Disp22 (T)                   -0.66039206 [mEh]      -0.41440228 [kcal/mol]      -1.73385912 [kJ/mol]
      Est. Disp22 (T)              -0.72991812 [mEh]      -0.45803053 [kcal/mol]      -1.91639975 [kJ/mol]
      Exch-Disp20                   0.83524106 [mEh]       0.52412168 [kcal/mol]       2.19292511 [kJ/mol]

  Total HF                          6.45330846 [mEh]       4.04951220 [kcal/mol]      16.94315903 [kJ/mol]
  Total SAPT0                       1.08296605 [mEh]       0.67957146 [kcal/mol]       2.84332697 [kJ/mol]
  Total SAPT2                       1.63060809 [mEh]       1.02322202 [kcal/mol]       4.28116095 [kJ/mol]
  Total SAPT2+                      1.36187850 [mEh]       0.85459166 [kcal/mol]       3.57561151 [kJ/mol]

  Special recipe for scaled SAPT0 (see Manual):
    Electrostatics sSAPT0          -3.70461001 [mEh]      -2.32467788 [kcal/mol]      -9.72645223 [kJ/mol]
    Exchange sSAPT0                11.07514844 [mEh]       6.94976057 [kcal/mol]      29.07779823 [kJ/mol]
    Induction sSAPT0               -0.89232470 [mEh]      -0.55994221 [kcal/mol]      -2.34279819 [kJ/mol]
    Dispersion sSAPT0              -5.35715126 [mEh]      -3.36166317 [kcal/mol]     -14.06519869 [kJ/mol]
  Total sSAPT0                      1.12106247 [mEh]       0.70347732 [kcal/mol]       2.94334911 [kJ/mol]
  --------------------------------------------------------------------------------------------------------

*** Psi4 exiting successfully. Buy a developer a beer!
