                               Psi4 1.4a2.dev224

  ==> Input File <==

--------------------------------------------------------------------------
#Generated by lconvert.py for sapt job

memory 20 GB

molecule  {
0 1
  C       1.433270    0.673520    0.000070
  H       2.314590    1.298680   -0.000900
  H       0.472720    1.168200    0.001070
  C       1.527250   -0.655290    0.000050
  H       0.645880   -1.280300    0.001020
  H       2.487500   -1.150700   -0.000950
--
0 1
  C      -2.722880   -0.040340   -0.096610
  H      -3.013460    1.005710   -0.096740
  H      -2.132880   -0.251750   -0.983150
  H      -2.133830   -0.251780    0.790550
  H      -3.613050   -0.661490   -0.097090
units angstrom
no_reorient
symmetry c1
}

set {
scf_type DF
basis aug-cc-pvdz
freeze_core True
guess SAD
}
energy('sapt2+')
--------------------------------------------------------------------------

  //              Dimer HF             //
    Molecular point group: c1
  Charge       = 0
  Multiplicity = 1
  Basis Set: AUG-CC-PVDZ
    Blend: AUG-CC-PVDZ
  Basis Set: (AUG-CC-PVDZ AUX)
    Blend: AUG-CC-PVDZ-JKFIT
  @DF-RHF Final Energy:  -118.24325232032835
    Total Energy =                       -118.2432523203283523
  //            Monomer A HF           //
    Molecular point group: c1
  Multiplicity = 1
  Basis Set: AUG-CC-PVDZ
    Blend: AUG-CC-PVDZ
  Basis Set: (AUG-CC-PVDZ AUX)
    Blend: AUG-CC-PVDZ-JKFIT
  @DF-RHF Final Energy:   -78.04364394513343
    Total Energy =                        -78.0436439451334252
  //            Monomer B HF           //
    Molecular point group: c1

    Geometry (in Angstrom), charge = 0, multiplicity = 1:

       Center              X                  Y                   Z               Mass
    ------------   -----------------  -----------------  -----------------  -----------------
      Gh(C)           1.482285722969     0.682364594769     0.035181226758    12.000000000000
      Gh(H)           2.363605722969     1.307524594769     0.034211226758     1.007825032230
      Gh(H)           0.521735722969     1.177044594769     0.036181226758     1.007825032230
      Gh(C)           1.576265722969    -0.646445405231     0.035161226758    12.000000000000
      Gh(H)           0.694895722969    -1.271455405231     0.036131226758     1.007825032230
      Gh(H)           2.536515722969    -1.141855405231     0.034161226758     1.007825032230
         C           -2.673864277031    -0.031495405231    -0.061498773242    12.000000000000
         H           -2.964444277031     1.014554594769    -0.061628773242     1.007825032230
         H           -2.083864277031    -0.242905405231    -0.948038773242     1.007825032230
         H           -2.084814277031    -0.242935405231     0.825661226758     1.007825032230
         H           -3.564034277031    -0.652645405231    -0.061978773242     1.007825032230

  Charge       = 0
  Multiplicity = 1
  Basis Set: AUG-CC-PVDZ
    Blend: AUG-CC-PVDZ
  Basis Set: (AUG-CC-PVDZ AUX)
    Blend: AUG-CC-PVDZ-JKFIT

    Orbital Energies [Eh]
    ---------------------

    Doubly Occupied:

       1A    -11.213541     2A     -0.945114     3A     -0.544904
       4A     -0.544878     5A     -0.544596

  @DF-RHF Final Energy:   -40.19973174544745

   => Energetics <=

    Nuclear Repulsion Energy =             13.4894651621238104
    One-Electron Energy =                 -79.7923301641950786
    Two-Electron Energy =                  26.1031332566238241
    Total Energy =                        -40.1997317454474512

  Dipole Moment: [D]
     X:     0.0000      Y:     0.0010      Z:    -0.0001     Total:     0.0010

    SAPT Results
  --------------------------------------------------------------------------------------------------------
    Electrostatics                 -0.27855884 [mEh]      -0.17479831 [kcal/mol]      -0.73135614 [kJ/mol]
      Elst10,r                     -0.25949864 [mEh]      -0.16283785 [kcal/mol]      -0.68131357 [kJ/mol]
      Elst12,r                     -0.01906021 [mEh]      -0.01196046 [kcal/mol]      -0.05004256 [kJ/mol]

    Exchange                        0.48499833 [mEh]       0.30434105 [kcal/mol]       1.27336295 [kJ/mol]
      Exch10                        0.42152755 [mEh]       0.26451253 [kcal/mol]       1.10672044 [kJ/mol]
      Exch10(S^2)                   0.42141738 [mEh]       0.26444340 [kcal/mol]       1.10643118 [kJ/mol]
      Exch11(S^2)                   0.00499472 [mEh]       0.00313423 [kcal/mol]       0.01311363 [kJ/mol]
      Exch12(S^2)                   0.05847606 [mEh]       0.03669428 [kcal/mol]       0.15352888 [kJ/mol]

    Induction                      -0.04080450 [mEh]      -0.02560521 [kcal/mol]      -0.10713219 [kJ/mol]
      Ind20,r                      -0.05037216 [mEh]      -0.03160900 [kcal/mol]      -0.13225208 [kJ/mol]
      Ind22                        -0.00835820 [mEh]      -0.00524485 [kcal/mol]      -0.02194444 [kJ/mol]
      Exch-Ind20,r                  0.03743992 [mEh]       0.02349390 [kcal/mol]       0.09829849 [kJ/mol]
      Exch-Ind22                    0.00621236 [mEh]       0.00389832 [kcal/mol]       0.01631056 [kJ/mol]
      delta HF,r (2)               -0.02572643 [mEh]      -0.01614358 [kcal/mol]      -0.06754473 [kJ/mol]

    Dispersion                     -1.16146874 [mEh]      -0.72883264 [kcal/mol]      -3.04943576 [kJ/mol]
      Disp20                       -1.14325644 [mEh]      -0.71740425 [kcal/mol]      -3.00161938 [kJ/mol]
      Disp21                        0.01784737 [mEh]       0.01119939 [kcal/mol]       0.04685825 [kJ/mol]
      Disp22 (SDQ)                  0.06329916 [mEh]       0.03972082 [kcal/mol]       0.16619192 [kJ/mol]
      Disp22 (T)                   -0.13628915 [mEh]      -0.08552273 [kcal/mol]      -0.35782712 [kJ/mol]
      Est. Disp22 (T)              -0.14529482 [mEh]      -0.09117388 [kcal/mol]      -0.38147150 [kJ/mol]
      Exch-Disp20                   0.04593600 [mEh]       0.02882528 [kcal/mol]       0.12060495 [kJ/mol]

  Total HF                          0.12337025 [mEh]       0.07741600 [kcal/mol]       0.32390855 [kJ/mol]
  Total SAPT0                      -0.97395019 [mEh]      -0.61116297 [kcal/mol]      -2.55710588 [kJ/mol]
  Total SAPT2                      -0.93168545 [mEh]      -0.58464145 [kcal/mol]      -2.44613981 [kJ/mol]
  Total SAPT2+                     -0.99583375 [mEh]      -0.62489511 [kcal/mol]      -2.61456114 [kJ/mol]

  Special recipe for scaled SAPT0 (see Manual):
    Electrostatics sSAPT0          -0.25949864 [mEh]      -0.16283785 [kcal/mol]      -0.68131357 [kJ/mol]
    Exchange sSAPT0                 0.42152755 [mEh]       0.26451253 [kcal/mol]       1.10672044 [kJ/mol]
    Induction sSAPT0               -0.03862929 [mEh]      -0.02424025 [kcal/mol]      -0.10142120 [kJ/mol]
    Dispersion sSAPT0              -1.09728441 [mEh]      -0.68855636 [kcal/mol]      -2.88091981 [kJ/mol]
  Total sSAPT0                     -0.97388478 [mEh]      -0.61112193 [kcal/mol]      -2.55693414 [kJ/mol]
  --------------------------------------------------------------------------------------------------------

*** Psi4 exiting successfully. Buy a developer a beer!
