                               Psi4 1.4a2.dev224

  ==> Input File <==

--------------------------------------------------------------------------
#Generated by lconvert.py for sapt job

memory 20 GB

molecule  {
0 1
  C       1.433270    0.673520    0.000070
  H       2.314590    1.298680   -0.000900
  H       0.472720    1.168200    0.001070
  C       1.527250   -0.655290    0.000050
  H       0.645880   -1.280300    0.001020
  H       2.487500   -1.150700   -0.000950
--
0 1
  C      -1.412030    0.054290    0.260100
  H      -1.702600    1.100350    0.259970
  H      -0.822030   -0.157110   -0.626440
  H      -0.822970   -0.157150    1.147260
  H      -2.302200   -0.566860    0.259620
units angstrom
no_reorient
symmetry c1
}

set {
scf_type DF
basis aug-cc-pvdz
freeze_core True
guess SAD
}
energy('sapt2+')
--------------------------------------------------------------------------

  //              Dimer HF             //
    Molecular point group: c1
  Charge       = 0
  Multiplicity = 1
  Basis Set: AUG-CC-PVDZ
    Blend: AUG-CC-PVDZ
  Basis Set: (AUG-CC-PVDZ AUX)
    Blend: AUG-CC-PVDZ-JKFIT
  @DF-RHF Final Energy:  -118.22508995153736
    Total Energy =                       -118.2250899515373561
  //            Monomer A HF           //
    Molecular point group: c1
  Multiplicity = 1
  Basis Set: AUG-CC-PVDZ
    Blend: AUG-CC-PVDZ
  Basis Set: (AUG-CC-PVDZ AUX)
    Blend: AUG-CC-PVDZ-JKFIT
  @DF-RHF Final Energy:   -78.04379057752092
    Total Energy =                        -78.0437905775209231
  //            Monomer B HF           //
    Molecular point group: c1

    Geometry (in Angstrom), charge = 0, multiplicity = 1:

       Center              X                  Y                   Z               Mass
    ------------   -----------------  -----------------  -----------------  -----------------
      Gh(C)           1.005358582774     0.647934895231    -0.094600607168    12.000000000000
      Gh(H)           1.886678582774     1.273094895231    -0.095570607168     1.007825032230
      Gh(H)           0.044808582774     1.142614895231    -0.093600607168     1.007825032230
      Gh(C)           1.099338582774    -0.680875104769    -0.094620607168    12.000000000000
      Gh(H)           0.217968582774    -1.305885104769    -0.093650607168     1.007825032230
      Gh(H)           2.059588582774    -1.176285104769    -0.095620607168     1.007825032230
         C           -1.839941417226     0.028704895231     0.165429392832    12.000000000000
         H           -2.130511417226     1.074764895231     0.165299392832     1.007825032230
         H           -1.249941417226    -0.182695104769    -0.721110607168     1.007825032230
         H           -1.250881417226    -0.182735104769     1.052589392832     1.007825032230
         H           -2.730111417226    -0.592445104769     0.164949392832     1.007825032230

  Charge       = 0
  Multiplicity = 1
  Basis Set: AUG-CC-PVDZ
    Blend: AUG-CC-PVDZ
  Basis Set: (AUG-CC-PVDZ AUX)
    Blend: AUG-CC-PVDZ-JKFIT

    Orbital Energies [Eh]
    ---------------------

    Doubly Occupied:

       1A    -11.213200     2A     -0.945058     3A     -0.544918
       4A     -0.544777     5A     -0.544591

  @DF-RHF Final Energy:   -40.20014142339885

   => Energetics <=

    Nuclear Repulsion Energy =             13.4894327403268850
    One-Electron Energy =                 -79.7940630323957123
    Two-Electron Energy =                  26.1044888686699750
    Total Energy =                        -40.2001414233988470

  Dipole Moment: [D]
     X:    -0.0003      Y:    -0.0000      Z:     0.0004     Total:     0.0005

    SAPT Results
  --------------------------------------------------------------------------------------------------------
    Electrostatics                -11.14834643 [mEh]      -6.99569300 [kcal/mol]     -29.26997951 [kJ/mol]
      Elst10,r                    -10.15629807 [mEh]      -6.37317326 [kcal/mol]     -26.66535691 [kJ/mol]
      Elst12,r                     -0.99204835 [mEh]      -0.62251974 [kcal/mol]      -2.60462260 [kJ/mol]

    Exchange                       33.72030855 [mEh]      21.15981308 [kcal/mol]      88.53265791 [kJ/mol]
      Exch10                       31.54602322 [mEh]      19.79542843 [kcal/mol]      82.82407256 [kJ/mol]
      Exch10(S^2)                  31.12491802 [mEh]      19.53118093 [kcal/mol]      81.71846102 [kJ/mol]
      Exch11(S^2)                   0.60570795 [mEh]       0.38008748 [kcal/mol]       1.59028602 [kJ/mol]
      Exch12(S^2)                   1.56857738 [mEh]       0.98429716 [kcal/mol]       4.11829934 [kJ/mol]

    Induction                      -2.63734544 [mEh]      -1.65495925 [kcal/mol]      -6.92434951 [kJ/mol]
      Ind20,r                      -6.41127623 [mEh]      -4.02313657 [kcal/mol]     -16.83280342 [kJ/mol]
      Ind22                        -0.65219687 [mEh]      -0.40925971 [kcal/mol]      -1.71234264 [kJ/mol]
      Exch-Ind20,r                  5.52979843 [mEh]       3.47000091 [kcal/mol]      14.51848379 [kJ/mol]
      Exch-Ind22                    0.56252719 [mEh]       0.35299114 [kcal/mol]       1.47691494 [kJ/mol]
      delta HF,r (2)               -1.66619798 [mEh]      -1.04555501 [kcal/mol]      -4.37460218 [kJ/mol]

    Dispersion                     -9.93199033 [mEh]      -6.23241802 [kcal/mol]     -26.07643702 [kJ/mol]
      Disp20                      -11.69060935 [mEh]      -7.33596812 [kcal/mol]     -30.69369062 [kJ/mol]
      Disp21                        0.42911976 [mEh]       0.26927671 [kcal/mol]       1.12665377 [kJ/mol]
      Disp22 (SDQ)                  0.58949299 [mEh]       0.36991243 [kcal/mol]       1.54771363 [kJ/mol]
      Disp22 (T)                   -1.19816816 [mEh]      -0.75186187 [kcal/mol]      -3.14579008 [kJ/mol]
      Est. Disp22 (T)              -1.31632787 [mEh]      -0.82600821 [kcal/mol]      -3.45601835 [kJ/mol]
      Exch-Disp20                   2.05633415 [mEh]       1.29036916 [kcal/mol]       5.39890457 [kJ/mol]

  Total HF                         18.84204938 [mEh]      11.82356449 [kcal/mol]      49.46979384 [kJ/mol]
  Total SAPT0                       9.20777418 [mEh]       5.77796553 [kcal/mol]      24.17500778 [kJ/mol]
  Total SAPT2                      10.30034148 [mEh]       6.46356186 [kcal/mol]      27.04354284 [kJ/mol]
  Total SAPT2+                     10.00262636 [mEh]       6.27674280 [kcal/mol]      26.26189188 [kJ/mol]

  Special recipe for scaled SAPT0 (see Manual):
    Electrostatics sSAPT0         -10.15629807 [mEh]      -6.37317326 [kcal/mol]     -26.66535691 [kJ/mol]
    Exchange sSAPT0                31.54602322 [mEh]      19.79542843 [kcal/mol]      82.82407256 [kJ/mol]
    Induction sSAPT0               -2.32017887 [mEh]      -1.45593422 [kcal/mol]      -6.09162877 [kJ/mol]
    Dispersion sSAPT0              -9.54967724 [mEh]      -5.99251294 [kcal/mol]     -25.07267415 [kJ/mol]
  Total sSAPT0                      9.51986904 [mEh]       5.97380801 [kcal/mol]      24.99441272 [kJ/mol]
  --------------------------------------------------------------------------------------------------------

*** Psi4 exiting successfully. Buy a developer a beer!
