                               Psi4 1.4a2.dev224

  ==> Input File <==

--------------------------------------------------------------------------
#Generated by lconvert.py for sapt job

memory 20 GB

molecule  {
0 1
  C       1.433270    0.673520    0.000070
  H       2.314590    1.298680   -0.000900
  H       0.472720    1.168200    0.001070
  C       1.527250   -0.655290    0.000050
  H       0.645880   -1.280300    0.001020
  H       2.487500   -1.150700   -0.000950
--
0 1
  C      -2.063640    0.007250    0.082780
  H      -2.354210    1.053300    0.082650
  H      -1.473640   -0.204150   -0.803750
  H      -1.474580   -0.204190    0.969940
  H      -2.953810   -0.613900    0.082300
units angstrom
no_reorient
symmetry c1
}

set {
scf_type DF
basis aug-cc-pvdz
freeze_core True
guess SAD
}
energy('sapt2+')
--------------------------------------------------------------------------

  //              Dimer HF             //
    Molecular point group: c1
  Charge       = 0
  Multiplicity = 1
  Basis Set: AUG-CC-PVDZ
    Blend: AUG-CC-PVDZ
  Basis Set: (AUG-CC-PVDZ AUX)
    Blend: AUG-CC-PVDZ-JKFIT
  @DF-RHF Final Energy:  -118.24144322773223
    Total Energy =                       -118.2414432277322334
  //            Monomer A HF           //
    Molecular point group: c1
  Multiplicity = 1
  Basis Set: AUG-CC-PVDZ
    Blend: AUG-CC-PVDZ
  Basis Set: (AUG-CC-PVDZ AUX)
    Blend: AUG-CC-PVDZ-JKFIT
  @DF-RHF Final Energy:   -78.04370185167249
    Total Energy =                        -78.0437018516724947
  //            Monomer B HF           //
    Molecular point group: c1

    Geometry (in Angstrom), charge = 0, multiplicity = 1:

       Center              X                  Y                   Z               Mass
    ------------   -----------------  -----------------  -----------------  -----------------
      Gh(C)           1.242433912325     0.665049691723    -0.030086483081    12.000000000000
      Gh(H)           2.123753912325     1.290209691723    -0.031056483081     1.007825032230
      Gh(H)           0.281883912325     1.159729691723    -0.029086483081     1.007825032230
      Gh(C)           1.336413912325    -0.663760308277    -0.030106483081    12.000000000000
      Gh(H)           0.455043912325    -1.288770308277    -0.029136483081     1.007825032230
      Gh(H)           2.296663912325    -1.159170308277    -0.031106483081     1.007825032230
         C           -2.254476087675    -0.001220308277     0.052623516919    12.000000000000
         H           -2.545046087675     1.044829691723     0.052493516919     1.007825032230
         H           -1.664476087675    -0.212620308277    -0.833906483081     1.007825032230
         H           -1.665416087675    -0.212660308277     0.939783516919     1.007825032230
         H           -3.144646087675    -0.622370308277     0.052143516919     1.007825032230

  Charge       = 0
  Multiplicity = 1
  Basis Set: AUG-CC-PVDZ
    Blend: AUG-CC-PVDZ
  Basis Set: (AUG-CC-PVDZ AUX)
    Blend: AUG-CC-PVDZ-JKFIT

    Orbital Energies [Eh]
    ---------------------

    Doubly Occupied:

       1A    -11.213388     2A     -0.945087     3A     -0.544932
       4A     -0.544827     5A     -0.544588

  @DF-RHF Final Energy:   -40.19990155761696

   => Energetics <=

    Nuclear Repulsion Energy =             13.4894880312583467
    One-Electron Energy =                 -79.7931371880881102
    Two-Electron Energy =                  26.1037475992128059
    Total Energy =                        -40.1999015576169541

  Dipole Moment: [D]
     X:     0.0002      Y:     0.0003      Z:     0.0001     Total:     0.0004

    SAPT Results
  --------------------------------------------------------------------------------------------------------
    Electrostatics                 -1.64277677 [mEh]      -1.03085799 [kcal/mol]      -4.31310982 [kJ/mol]
      Elst10,r                     -1.46941430 [mEh]      -0.92207139 [kcal/mol]      -3.85794670 [kJ/mol]
      Elst12,r                     -0.17336248 [mEh]      -0.10878660 [kcal/mol]      -0.45516312 [kJ/mol]

    Exchange                        4.39951143 [mEh]       2.76073511 [kcal/mol]      11.55091568 [kJ/mol]
      Exch10                        3.96347594 [mEh]       2.48711870 [kcal/mol]      10.40610465 [kJ/mol]
      Exch10(S^2)                   3.95532050 [mEh]       2.48200108 [kcal/mol]      10.38469253 [kJ/mol]
      Exch11(S^2)                   0.07012916 [mEh]       0.04400671 [kcal/mol]       0.18412408 [kJ/mol]
      Exch12(S^2)                   0.36590633 [mEh]       0.22960969 [kcal/mol]       0.96068695 [kJ/mol]

    Induction                      -0.34633143 [mEh]      -0.21732625 [kcal/mol]      -0.90929304 [kJ/mol]
      Ind20,r                      -0.56304899 [mEh]      -0.35331858 [kcal/mol]      -1.47828493 [kJ/mol]
      Ind22                        -0.07993304 [mEh]      -0.05015874 [kcal/mol]      -0.20986416 [kJ/mol]
      Exch-Ind20,r                  0.47534165 [mEh]       0.29828139 [kcal/mol]       1.24800932 [kJ/mol]
      Exch-Ind22                    0.06748170 [mEh]       0.04234540 [kcal/mol]       0.17717317 [kJ/mol]
      delta HF,r (2)               -0.24617274 [mEh]      -0.15447573 [kcal/mol]      -0.64632645 [kJ/mol]

    Dispersion                     -3.33461785 [mEh]      -2.09250429 [kcal/mol]      -8.75503797 [kJ/mol]
      Disp20                       -3.48588836 [mEh]      -2.18742797 [kcal/mol]      -9.15219863 [kJ/mol]
      Disp21                        0.05322798 [mEh]       0.03340106 [kcal/mol]       0.13975004 [kJ/mol]
      Disp22 (SDQ)                  0.18393433 [mEh]       0.11542054 [kcal/mol]       0.48291952 [kJ/mol]
      Disp22 (T)                   -0.38932397 [mEh]      -0.24430448 [kcal/mol]      -1.02216995 [kJ/mol]
      Est. Disp22 (T)              -0.42430102 [mEh]      -0.26625291 [kcal/mol]      -1.11400218 [kJ/mol]
      Exch-Disp20                   0.33840922 [mEh]       0.21235499 [kcal/mol]       0.88849329 [kJ/mol]

  Total HF                          2.16018156 [mEh]       1.35553439 [kcal/mol]       5.67155590 [kJ/mol]
  Total SAPT0                      -0.98729758 [mEh]      -0.61953859 [kcal/mol]      -2.59214944 [kJ/mol]
  Total SAPT2                      -0.73707591 [mEh]      -0.46252211 [kcal/mol]      -1.93519252 [kJ/mol]
  Total SAPT2+                     -0.92421462 [mEh]      -0.57995343 [kcal/mol]      -2.42652515 [kJ/mol]

  Special recipe for scaled SAPT0 (see Manual):
    Electrostatics sSAPT0          -1.46941430 [mEh]      -0.92207139 [kcal/mol]      -3.85794670 [kJ/mol]
    Exchange sSAPT0                 3.96347594 [mEh]       2.48711870 [kcal/mol]      10.40610465 [kJ/mol]
    Induction sSAPT0               -0.33093371 [mEh]      -0.20766404 [kcal/mol]      -0.86886634 [kJ/mol]
    Dispersion sSAPT0              -3.14538153 [mEh]      -1.97375671 [kcal/mol]      -8.25819807 [kJ/mol]
  Total sSAPT0                     -0.98225360 [mEh]      -0.61637344 [kcal/mol]      -2.57890646 [kJ/mol]
  --------------------------------------------------------------------------------------------------------

*** Psi4 exiting successfully. Buy a developer a beer!
