                               Psi4 1.4a2.dev224

  ==> Input File <==

--------------------------------------------------------------------------
#Generated by lconvert.py for sapt job

memory 20 GB

molecule  {
0 1
  C       1.433270    0.673520    0.000070
  H       2.314590    1.298680   -0.000900
  H       0.472720    1.168200    0.001070
  C       1.527250   -0.655290    0.000050
  H       0.645880   -1.280300    0.001020
  H       2.487500   -1.150700   -0.000950
--
0 1
  C      -1.412030    0.054290    0.260100
  H      -1.702600    1.100350    0.259970
  H      -0.822030   -0.157110   -0.626440
  H      -0.822970   -0.157150    1.147260
  H      -2.302200   -0.566860    0.259620
units angstrom
no_reorient
symmetry c1
}

set {
scf_type DF
basis aug-cc-pvdz
freeze_core True
guess SAD
}
energy('sapt2+')
--------------------------------------------------------------------------

  //              Dimer HF             //
    Molecular point group: c1
  Charge       = 0
  Multiplicity = 1
  Basis Set: AUG-CC-PVDZ
    Blend: AUG-CC-PVDZ
  Basis Set: (AUG-CC-PVDZ AUX)
    Blend: AUG-CC-PVDZ-JKFIT
  @DF-RHF Final Energy:  -118.22508995153736
    Total Energy =                       -118.2250899515373561
  //            Monomer A HF           //
    Molecular point group: c1
  Basis Set: AUG-CC-PVDZ
    Blend: AUG-CC-PVDZ
  Basis Set: (AUG-CC-PVDZ AUX)
    Blend: AUG-CC-PVDZ-JKFIT
  @DF-RHF Final Energy:   -78.04379057752092
    Total Energy =                        -78.0437905775209231
  //            Monomer B HF           //
  Basis Set: AUG-CC-PVDZ
    Blend: AUG-CC-PVDZ
  Basis Set: (AUG-CC-PVDZ AUX)
    Blend: AUG-CC-PVDZ-JKFIT
  @DF-RHF Final Energy:   -40.20014142339885
    Total Energy =                        -40.2001414233988470
*** Psi4 exiting successfully. Buy a developer a beer!
                               Psi4 1.4a2.dev224
  //              Dimer HF             //
  Basis Set: AUG-CC-PVDZ
    Blend: AUG-CC-PVDZ
  Basis Set: (AUG-CC-PVDZ AUX)
    Blend: AUG-CC-PVDZ-JKFIT
  @DF-RHF Final Energy:  -118.23729709114815
    Total Energy =                       -118.2372970911481502
  @DF-RHF Final Energy:   -78.04373799508060
    Total Energy =                        -78.0437379950806189
  @DF-RHF Final Energy:   -40.20001240452878
    Total Energy =                        -40.2000124045287848
*** Psi4 exiting successfully. Buy a developer a beer!
                               Psi4 1.4a2.dev224
  @DF-RHF Final Energy:  -118.24144322773223
    Total Energy =                       -118.2414432277322334
  @DF-RHF Final Energy:   -78.04370185167249
    Total Energy =                        -78.0437018516724947
  @DF-RHF Final Energy:   -40.19990155761696
    Total Energy =                        -40.1999015576169541
                               Psi4 1.4a2.dev224
  @DF-RHF Final Energy:  -118.24232151161746
    Total Energy =                       -118.2423215116174617
  @DF-RHF Final Energy:   -78.04368635325602
    Total Energy =                        -78.0436863532560210
  @DF-RHF Final Energy:   -40.19985673724003
    Total Energy =                        -40.1998567372400331
                               Psi4 1.4a2.dev224
  @DF-RHF Final Energy:  -118.24281734933106
    Total Energy =                       -118.2428173493310624
  @DF-RHF Final Energy:   -78.04367252851515
    Total Energy =                        -78.0436725285151454
  @DF-RHF Final Energy:   -40.19981723042205
    Total Energy =                        -40.1998172304220489
                               Psi4 1.4a2.dev224
  @DF-RHF Final Energy:  -118.24312391132243
    Total Energy =                       -118.2431239113224279
  @DF-RHF Final Energy:   -78.04365764607337
    Total Energy =                        -78.0436576460733704
  @DF-RHF Final Energy:   -40.19977279511356
    Total Energy =                        -40.1997727951135602
                               Psi4 1.4a2.dev224
  @DF-RHF Final Energy:  -118.24325232032835
    Total Energy =                       -118.2432523203283523
  @DF-RHF Final Energy:   -78.04364394513343
    Total Energy =                        -78.0436439451334252
  @DF-RHF Final Energy:   -40.19973174544745
    Total Energy =                        -40.1997317454474512
                               Psi4 1.4a2.dev224
  @DF-RHF Final Energy:  -118.24325241151602
    Total Energy =                       -118.2432524115160248
  @DF-RHF Final Energy:   -78.04359179637659
    Total Energy =                        -78.0435917963766030
  @DF-RHF Final Energy:   -40.19962520974217
    Total Energy =                        -40.1996252097421660
                               Psi4 1.4a2.dev224
  @DF-RHF Final Energy:  -118.24317126774540
    Total Energy =                       -118.2431712677453959
  @DF-RHF Final Energy:   -78.04355120045059
    Total Energy =                        -78.0435512004505938
  //            Monomer B HF           //
  Basis Set: AUG-CC-PVDZ
    Blend: AUG-CC-PVDZ
  Basis Set: (AUG-CC-PVDZ AUX)
    Blend: AUG-CC-PVDZ-JKFIT
  @DF-RHF Final Energy:   -40.19960323539647
    Total Energy =                        -40.1996032353964665
*** Psi4 exiting successfully. Buy a developer a beer!
                               Psi4 1.4a2.dev224
  //              Dimer HF             //
  Basis Set: AUG-CC-PVDZ
    Blend: AUG-CC-PVDZ
  Basis Set: (AUG-CC-PVDZ AUX)
    Blend: AUG-CC-PVDZ-JKFIT
  @DF-RHF Final Energy:  -118.24313948615406
    Total Energy =                       -118.2431394861540639
  //            Monomer A HF           //
  Multiplicity = 1
  Basis Set: AUG-CC-PVDZ
    Blend: AUG-CC-PVDZ
  Basis Set: (AUG-CC-PVDZ AUX)
    Blend: AUG-CC-PVDZ-JKFIT
  @DF-RHF Final Energy:   -78.04353699440890
    Total Energy =                        -78.0435369944088961
  //            Monomer B HF           //
    Molecular point group: c1

    Geometry (in Angstrom), charge = 0, multiplicity = 1:

       Center              X                  Y                   Z               Mass
    ------------   -----------------  -----------------  -----------------  -----------------
      Gh(C)           2.458561479885     0.752845532447     0.300846325337    12.000000000000
      Gh(H)           3.339881479885     1.378005532447     0.299876325337     1.007825032230
      Gh(H)           1.498011479885     1.247525532447     0.301846325337     1.007825032230
      Gh(C)           2.552541479885    -0.575964467553     0.300826325337    12.000000000000
      Gh(H)           1.671171479885    -1.200974467553     0.301796325337     1.007825032230
      Gh(H)           3.512791479885    -1.071374467553     0.299826325337     1.007825032230
         C           -4.380918520115    -0.154734467553    -0.526023674663    12.000000000000
         H           -4.671488520115     0.891315532447    -0.526153674663     1.007825032230
         H           -3.790918520115    -0.366134467553    -1.412563674663     1.007825032230
         H           -3.791858520115    -0.366174467553     0.361136325337     1.007825032230
         H           -5.271088520115    -0.775884467553    -0.526503674663     1.007825032230

  Charge       = 0
  Multiplicity = 1
  Basis Set: AUG-CC-PVDZ
    Blend: AUG-CC-PVDZ
  Basis Set: (AUG-CC-PVDZ AUX)
    Blend: AUG-CC-PVDZ-JKFIT

    Orbital Energies [Eh]
    ---------------------

    Doubly Occupied:

       1A    -11.213743     2A     -0.945143     3A     -0.544915
       4A     -0.544881     5A     -0.544608

  @DF-RHF Final Energy:   -40.19959664367196

   => Energetics <=

    Nuclear Repulsion Energy =             13.4894626709477876
    One-Electron Energy =                 -79.7915389942418045
    Two-Electron Energy =                  26.1024796796220571
    Total Energy =                        -40.1995966436719598

  Dipole Moment: [D]
     X:    -0.0008      Y:     0.0005      Z:    -0.0002     Total:     0.0010

    SAPT Results
  --------------------------------------------------------------------------------------------------------
    Electrostatics                 -0.00498235 [mEh]      -0.00312647 [kcal/mol]      -0.01308116 [kJ/mol]
      Elst10,r                     -0.00535985 [mEh]      -0.00336336 [kcal/mol]      -0.01407229 [kJ/mol]
      Elst12,r                      0.00037750 [mEh]       0.00023689 [kcal/mol]       0.00099113 [kJ/mol]

    Exchange                        0.00001192 [mEh]       0.00000748 [kcal/mol]       0.00003130 [kJ/mol]
      Exch10                        0.00001614 [mEh]       0.00001013 [kcal/mol]       0.00004238 [kJ/mol]
      Exch10(S^2)                   0.00001614 [mEh]       0.00001013 [kcal/mol]       0.00004238 [kJ/mol]
      Exch11(S^2)                  -0.00000057 [mEh]      -0.00000036 [kcal/mol]      -0.00000151 [kJ/mol]
      Exch12(S^2)                  -0.00000365 [mEh]      -0.00000229 [kcal/mol]      -0.00000957 [kJ/mol]

    Induction                      -0.00051405 [mEh]      -0.00032257 [kcal/mol]      -0.00134963 [kJ/mol]
      Ind20,r                      -0.00013273 [mEh]      -0.00008329 [kcal/mol]      -0.00034849 [kJ/mol]
      Ind22                        -0.00001006 [mEh]      -0.00000631 [kcal/mol]      -0.00002640 [kJ/mol]
      Exch-Ind20,r                  0.00000484 [mEh]       0.00000304 [kcal/mol]       0.00001271 [kJ/mol]
      Exch-Ind22                    0.00000037 [mEh]       0.00000023 [kcal/mol]       0.00000096 [kJ/mol]
      delta HF,r (2)               -0.00037647 [mEh]      -0.00023624 [kcal/mol]      -0.00098842 [kJ/mol]

    Dispersion                     -0.04338773 [mEh]      -0.02722621 [kcal/mol]      -0.11391446 [kJ/mol]
      Disp20                       -0.04304434 [mEh]      -0.02701073 [kcal/mol]      -0.11301291 [kJ/mol]
      Disp21                        0.00240158 [mEh]       0.00150701 [kcal/mol]       0.00630534 [kJ/mol]
      Disp22 (SDQ)                  0.00293764 [mEh]       0.00184340 [kcal/mol]       0.00771277 [kJ/mol]
      Disp22 (T)                   -0.00563496 [mEh]      -0.00353599 [kcal/mol]      -0.01479458 [kJ/mol]
      Est. Disp22 (T)              -0.00568828 [mEh]      -0.00356945 [kcal/mol]      -0.01493458 [kJ/mol]
      Exch-Disp20                   0.00000568 [mEh]       0.00000356 [kcal/mol]       0.00001491 [kJ/mol]

  Total HF                         -0.00584807 [mEh]      -0.00366972 [kcal/mol]      -0.01535411 [kJ/mol]
  Total SAPT0                      -0.04888674 [mEh]      -0.03067689 [kcal/mol]      -0.12835212 [kJ/mol]
  Total SAPT2                      -0.04852314 [mEh]      -0.03044873 [kcal/mol]      -0.12739750 [kJ/mol]
  Total SAPT2+                     -0.04887221 [mEh]      -0.03066777 [kcal/mol]      -0.12831396 [kJ/mol]

  Special recipe for scaled SAPT0 (see Manual):
    Electrostatics sSAPT0          -0.00535985 [mEh]      -0.00336336 [kcal/mol]      -0.01407229 [kJ/mol]
    Exchange sSAPT0                 0.00001614 [mEh]       0.00001013 [kcal/mol]       0.00004238 [kJ/mol]
    Induction sSAPT0               -0.00050436 [mEh]      -0.00031649 [kcal/mol]      -0.00132420 [kJ/mol]
    Dispersion sSAPT0              -0.04303867 [mEh]      -0.02700717 [kcal/mol]      -0.11299800 [kJ/mol]
  Total sSAPT0                     -0.04888674 [mEh]      -0.03067689 [kcal/mol]      -0.12835212 [kJ/mol]
  --------------------------------------------------------------------------------------------------------

*** Psi4 exiting successfully. Buy a developer a beer!
