                               Psi4 1.4a2.dev224

  ==> Input File <==

--------------------------------------------------------------------------
#Generated by lconvert.py for sapt job

memory 20 GB

molecule  {
0 1
  C       1.433270    0.673520    0.000070
  H       2.314590    1.298680   -0.000900
  H       0.472720    1.168200    0.001070
  C       1.527250   -0.655290    0.000050
  H       0.645880   -1.280300    0.001020
  H       2.487500   -1.150700   -0.000950
--
0 1
  C      -2.217100   -0.003830    0.041020
  H      -2.507670    1.042230    0.040890
  H      -1.627100   -0.215230   -0.845510
  H      -1.628040   -0.215270    0.928180
  H      -3.107270   -0.624980    0.040550
units angstrom
no_reorient
symmetry c1
}

set {
scf_type DF
basis aug-cc-pvdz
freeze_core True
guess SAD
}
energy('sapt2+')
--------------------------------------------------------------------------

  //              Dimer HF             //
    Molecular point group: c1
  Charge       = 0
  Multiplicity = 1
  Basis Set: AUG-CC-PVDZ
    Blend: AUG-CC-PVDZ
  Basis Set: (AUG-CC-PVDZ AUX)
    Blend: AUG-CC-PVDZ-JKFIT
  @DF-RHF Final Energy:  -118.24232151161746
    Total Energy =                       -118.2423215116174617
  //            Monomer A HF           //
    Molecular point group: c1
  Multiplicity = 1
  Basis Set: AUG-CC-PVDZ
    Blend: AUG-CC-PVDZ
  Basis Set: (AUG-CC-PVDZ AUX)
    Blend: AUG-CC-PVDZ-JKFIT
  @DF-RHF Final Energy:   -78.04368635325602
    Total Energy =                        -78.0436863532560210
  //            Monomer B HF           //
    Molecular point group: c1

    Geometry (in Angstrom), charge = 0, multiplicity = 1:

       Center              X                  Y                   Z               Mass
    ------------   -----------------  -----------------  -----------------  -----------------
      Gh(C)           1.298267279022     0.669080700473    -0.014893166953    12.000000000000
      Gh(H)           2.179587279022     1.294240700473    -0.015863166953     1.007825032230
      Gh(H)           0.337717279022     1.163760700473    -0.013893166953     1.007825032230
      Gh(C)           1.392247279022    -0.659729299527    -0.014913166953    12.000000000000
      Gh(H)           0.510877279022    -1.284739299527    -0.013943166953     1.007825032230
      Gh(H)           2.352497279022    -1.155139299527    -0.015913166953     1.007825032230
         C           -2.352102720978    -0.008269299527     0.026056833047    12.000000000000
         H           -2.642672720978     1.037790700473     0.025926833047     1.007825032230
         H           -1.762102720978    -0.219669299527    -0.860473166953     1.007825032230
         H           -1.763042720978    -0.219709299527     0.913216833047     1.007825032230
         H           -3.242272720978    -0.629419299527     0.025586833047     1.007825032230

  Charge       = 0
  Multiplicity = 1
  Basis Set: AUG-CC-PVDZ
    Blend: AUG-CC-PVDZ
  Basis Set: (AUG-CC-PVDZ AUX)
    Blend: AUG-CC-PVDZ-JKFIT

    Orbital Energies [Eh]
    ---------------------

    Doubly Occupied:

       1A    -11.213426     2A     -0.945092     3A     -0.544928
       4A     -0.544840     5A     -0.544588

  @DF-RHF Final Energy:   -40.19985673724003

   => Energetics <=

    Nuclear Repulsion Energy =             13.4894581142527219
    One-Electron Energy =                 -79.7928848830354696
    Two-Electron Energy =                  26.1035700315427093
    Total Energy =                        -40.1998567372400331

  Dipole Moment: [D]
     X:     0.0003      Y:     0.0005      Z:     0.0001     Total:     0.0006

    SAPT Results
  --------------------------------------------------------------------------------------------------------
    Electrostatics                 -1.06300215 [mEh]      -0.66704392 [kcal/mol]      -2.79091177 [kJ/mol]
      Elst10,r                     -0.95382545 [mEh]      -0.59853451 [kcal/mol]      -2.50426838 [kJ/mol]
      Elst12,r                     -0.10917670 [mEh]      -0.06850942 [kcal/mol]      -0.28664339 [kJ/mol]

    Exchange                        2.66212958 [mEh]       1.67051153 [kcal/mol]       6.98942026 [kJ/mol]
      Exch10                        2.37773591 [mEh]       1.49205181 [kcal/mol]       6.24274478 [kJ/mol]
      Exch10(S^2)                   2.37466210 [mEh]       1.49012296 [kcal/mol]       6.23467448 [kJ/mol]
      Exch11(S^2)                   0.03947799 [mEh]       0.02477281 [kcal/mol]       0.10364944 [kJ/mol]
      Exch12(S^2)                   0.24491568 [mEh]       0.15368691 [kcal/mol]       0.64302604 [kJ/mol]

    Induction                      -0.21056396 [mEh]      -0.13213088 [kcal/mol]      -0.55283559 [kJ/mol]
      Ind20,r                      -0.31984768 [mEh]      -0.20070745 [kcal/mol]      -0.83975997 [kJ/mol]
      Ind22                        -0.04794615 [mEh]      -0.03008666 [kcal/mol]      -0.12588259 [kJ/mol]
      Exch-Ind20,r                  0.26492970 [mEh]       0.16624590 [kcal/mol]       0.69557283 [kJ/mol]
      Exch-Ind22                    0.03971377 [mEh]       0.02492077 [kcal/mol]       0.10426850 [kJ/mol]
      delta HF,r (2)               -0.14741360 [mEh]      -0.09250343 [kcal/mol]      -0.38703436 [kJ/mol]

    Dispersion                     -2.59275974 [mEh]      -1.62698130 [kcal/mol]      -6.80728976 [kJ/mol]
      Disp20                       -2.65873754 [mEh]      -1.66838299 [kcal/mol]      -6.98051444 [kJ/mol]
      Disp21                        0.03643538 [mEh]       0.02286355 [kcal/mol]       0.09566108 [kJ/mol]
      Disp22 (SDQ)                  0.14163899 [mEh]       0.08887981 [kcal/mol]       0.37187311 [kJ/mol]
      Disp22 (T)                   -0.30095706 [mEh]      -0.18885341 [kcal/mol]      -0.79016266 [kJ/mol]
      Est. Disp22 (T)              -0.32723944 [mEh]      -0.20534585 [kcal/mol]      -0.85916702 [kJ/mol]
      Exch-Disp20                   0.21514287 [mEh]       0.13500419 [kcal/mol]       0.56485752 [kJ/mol]

  Total HF                          1.22157888 [mEh]       0.76655232 [kcal/mol]       3.20725490 [kJ/mol]
  Total SAPT0                      -1.22201579 [mEh]      -0.76682648 [kcal/mol]      -3.20840201 [kJ/mol]
  Total SAPT2                      -1.05503119 [mEh]      -0.66204207 [kcal/mol]      -2.76998402 [kJ/mol]
  Total SAPT2+                     -1.20419627 [mEh]      -0.75564456 [kcal/mol]      -3.16161686 [kJ/mol]

  Special recipe for scaled SAPT0 (see Manual):
    Electrostatics sSAPT0          -0.95382545 [mEh]      -0.59853451 [kcal/mol]      -2.50426838 [kJ/mol]
    Exchange sSAPT0                 2.37773591 [mEh]       1.49205181 [kcal/mol]       6.24274478 [kJ/mol]
    Induction sSAPT0               -0.20130146 [mEh]      -0.12631857 [kcal/mol]      -0.52851691 [kJ/mol]
    Dispersion sSAPT0              -2.44275813 [mEh]      -1.53285387 [kcal/mol]      -6.41346058 [kJ/mol]
  Total sSAPT0                     -1.22014913 [mEh]      -0.76565514 [kcal/mol]      -3.20350109 [kJ/mol]
  --------------------------------------------------------------------------------------------------------

*** Psi4 exiting successfully. Buy a developer a beer!
