                               Psi4 1.4a2.dev224

  ==> Input File <==

--------------------------------------------------------------------------
#Generated by lconvert.py for sapt job

memory 20 GB

molecule  {
0 1
  C       1.433270    0.673520    0.000070
  H       2.314590    1.298680   -0.000900
  H       0.472720    1.168200    0.001070
  C       1.527250   -0.655290    0.000050
  H       0.645880   -1.280300    0.001020
  H       2.487500   -1.150700   -0.000950
--
0 1
  C      -2.548500   -0.027750   -0.049160
  H      -2.839070    1.018300   -0.049290
  H      -1.958500   -0.239160   -0.935690
  H      -1.959450   -0.239190    0.838000
  H      -3.438670   -0.648900   -0.049640
units angstrom
no_reorient
symmetry c1
}

set {
scf_type DF
basis aug-cc-pvdz
freeze_core True
guess SAD
}
energy('sapt2+')
--------------------------------------------------------------------------

  //              Dimer HF             //
    Molecular point group: c1
  Charge       = 0
  Multiplicity = 1
  Basis Set: AUG-CC-PVDZ
    Blend: AUG-CC-PVDZ
  Basis Set: (AUG-CC-PVDZ AUX)
    Blend: AUG-CC-PVDZ-JKFIT
  @DF-RHF Final Energy:  -118.24312391132243
    Total Energy =                       -118.2431239113224279
  //            Monomer A HF           //
    Molecular point group: c1
  Multiplicity = 1
  Basis Set: AUG-CC-PVDZ
    Blend: AUG-CC-PVDZ
  Basis Set: (AUG-CC-PVDZ AUX)
    Blend: AUG-CC-PVDZ-JKFIT
  @DF-RHF Final Energy:   -78.04365764607337
    Total Energy =                        -78.0436576460733704
  //            Monomer B HF           //
    Molecular point group: c1

    Geometry (in Angstrom), charge = 0, multiplicity = 1:

       Center              X                  Y                   Z               Mass
    ------------   -----------------  -----------------  -----------------  -----------------
      Gh(C)           1.418840801916     0.677783973846     0.017917259926    12.000000000000
      Gh(H)           2.300160801916     1.302943973846     0.016947259926     1.007825032230
      Gh(H)           0.458290801916     1.172463973846     0.018917259926     1.007825032230
      Gh(C)           1.512820801916    -0.651026026154     0.017897259926    12.000000000000
      Gh(H)           0.631450801916    -1.276036026154     0.018867259926     1.007825032230
      Gh(H)           2.473070801916    -1.146436026154     0.016897259926     1.007825032230
         C           -2.562929198084    -0.023486026154    -0.031312740074    12.000000000000
         H           -2.853499198084     1.022563973846    -0.031442740074     1.007825032230
         H           -1.972929198084    -0.234896026154    -0.917842740074     1.007825032230
         H           -1.973879198084    -0.234926026154     0.855847259926     1.007825032230
         H           -3.453099198084    -0.644636026154    -0.031792740074     1.007825032230

  Charge       = 0
  Multiplicity = 1
  Basis Set: AUG-CC-PVDZ
    Blend: AUG-CC-PVDZ
  Basis Set: (AUG-CC-PVDZ AUX)
    Blend: AUG-CC-PVDZ-JKFIT

    Orbital Energies [Eh]
    ---------------------

    Doubly Occupied:

       1A    -11.213497     2A     -0.945107     3A     -0.544914
       4A     -0.544867     5A     -0.544595

  @DF-RHF Final Energy:   -40.19977279511356

   => Energetics <=

    Nuclear Repulsion Energy =             13.4894988339289927
    One-Electron Energy =                 -79.7925845171327239
    Two-Electron Energy =                  26.1033128880901728
    Total Energy =                        -40.1997727951135602

  Dipole Moment: [D]
     X:     0.0002      Y:     0.0009      Z:    -0.0001     Total:     0.0009

    SAPT Results
  --------------------------------------------------------------------------------------------------------
    Electrostatics                 -0.43279276 [mEh]      -0.27158156 [kcal/mol]      -1.13629723 [kJ/mol]
      Elst10,r                     -0.39623261 [mEh]      -0.24863972 [kcal/mol]      -1.04030858 [kJ/mol]
      Elst12,r                     -0.03656015 [mEh]      -0.02294184 [kcal/mol]      -0.09598866 [kJ/mol]

    Exchange                        0.87881431 [mEh]       0.55146430 [kcal/mol]       2.30732664 [kJ/mol]
      Exch10                        0.77085198 [mEh]       0.48371692 [kcal/mol]       2.02387160 [kJ/mol]
      Exch10(S^2)                   0.77049819 [mEh]       0.48349491 [kcal/mol]       2.02294271 [kJ/mol]
      Exch11(S^2)                   0.01053179 [mEh]       0.00660880 [kcal/mol]       0.02765122 [kJ/mol]
      Exch12(S^2)                   0.09743053 [mEh]       0.06113858 [kcal/mol]       0.25580383 [kJ/mol]

    Induction                      -0.07150135 [mEh]      -0.04486778 [kcal/mol]      -0.18772678 [kJ/mol]
      Ind20,r                      -0.09498427 [mEh]      -0.05960353 [kcal/mol]      -0.24938118 [kJ/mol]
      Ind22                        -0.01544760 [mEh]      -0.00969351 [kcal/mol]      -0.04055766 [kJ/mol]
      Exch-Ind20,r                  0.07400549 [mEh]       0.04643915 [kcal/mol]       0.19430139 [kJ/mol]
      Exch-Ind22                    0.01203575 [mEh]       0.00755255 [kcal/mol]       0.03159986 [kJ/mol]
      delta HF,r (2)               -0.04711072 [mEh]      -0.02956242 [kcal/mol]      -0.12368918 [kJ/mol]

    Dispersion                     -1.52387683 [mEh]      -0.95624715 [kcal/mol]      -4.00093808 [kJ/mol]
      Disp20                       -1.51592426 [mEh]      -0.95125684 [kcal/mol]      -3.98005860 [kJ/mol]
      Disp21                        0.02112076 [mEh]       0.01325348 [kcal/mol]       0.05545255 [kJ/mol]
      Disp22 (SDQ)                  0.08271392 [mEh]       0.05190377 [kcal/mol]       0.21716536 [kJ/mol]
      Disp22 (T)                   -0.17670859 [mEh]      -0.11088631 [kcal/mol]      -0.46394833 [kJ/mol]
      Est. Disp22 (T)              -0.19062545 [mEh]      -0.11961928 [kcal/mol]      -0.50048705 [kJ/mol]
      Exch-Disp20                   0.07883820 [mEh]       0.04947172 [kcal/mol]       0.20698966 [kJ/mol]

  Total HF                          0.30652986 [mEh]       0.19235039 [kcal/mol]       0.80479405 [kJ/mol]
  Total SAPT0                      -1.13055620 [mEh]      -0.70943473 [kcal/mol]      -2.96827489 [kJ/mol]
  Total SAPT2                      -1.06256587 [mEh]      -0.66677015 [kcal/mol]      -2.78976631 [kJ/mol]
  Total SAPT2+                     -1.14935664 [mEh]      -0.72123218 [kcal/mol]      -3.01763544 [kJ/mol]

  Special recipe for scaled SAPT0 (see Manual):
    Electrostatics sSAPT0          -0.39623261 [mEh]      -0.24863972 [kcal/mol]      -1.04030858 [kJ/mol]
    Exchange sSAPT0                 0.77085198 [mEh]       0.48371692 [kcal/mol]       2.02387160 [kJ/mol]
    Induction sSAPT0               -0.06798752 [mEh]      -0.04266281 [kcal/mol]      -0.17850120 [kJ/mol]
    Dispersion sSAPT0              -1.43697741 [mEh]      -0.90171694 [kcal/mol]      -3.77278368 [kJ/mol]
  Total sSAPT0                     -1.13034556 [mEh]      -0.70930255 [kcal/mol]      -2.96772185 [kJ/mol]
  --------------------------------------------------------------------------------------------------------

*** Psi4 exiting successfully. Buy a developer a beer!
