                               Psi4 1.4a2.dev224

  ==> Input File <==

--------------------------------------------------------------------------
#Generated by lconvert.py for sapt job

memory 20 GB

molecule  {
0 1
  C       1.433270    0.673520    0.000070
  H       2.314590    1.298680   -0.000900
  H       0.472720    1.168200    0.001070
  C       1.527250   -0.655290    0.000050
  H       0.645880   -1.280300    0.001020
  H       2.487500   -1.150700   -0.000950
--
0 1
  C      -3.393720   -0.088770   -0.279160
  H      -3.684290    0.957280   -0.279290
  H      -2.803710   -0.300180   -1.165690
  H      -2.804660   -0.300210    0.608000
  H      -4.283880   -0.709920   -0.279640
units angstrom
no_reorient
symmetry c1
}

set {
scf_type DF
basis aug-cc-pvdz
freeze_core True
guess SAD
}
energy('sapt2+')
--------------------------------------------------------------------------

  //              Dimer HF             //
    Molecular point group: c1
  Charge       = 0
  Multiplicity = 1
  Basis Set: AUG-CC-PVDZ
    Blend: AUG-CC-PVDZ
  Basis Set: (AUG-CC-PVDZ AUX)
    Blend: AUG-CC-PVDZ-JKFIT
  @DF-RHF Final Energy:  -118.24325241151602
    Total Energy =                       -118.2432524115160248
  //            Monomer A HF           //
    Molecular point group: c1
  Multiplicity = 1
  Basis Set: AUG-CC-PVDZ
    Blend: AUG-CC-PVDZ
  Basis Set: (AUG-CC-PVDZ AUX)
    Blend: AUG-CC-PVDZ-JKFIT
  @DF-RHF Final Energy:   -78.04359179637659
    Total Energy =                        -78.0435917963766030
  //            Monomer B HF           //
    Molecular point group: c1

    Geometry (in Angstrom), charge = 0, multiplicity = 1:

       Center              X                  Y                   Z               Mass
    ------------   -----------------  -----------------  -----------------  -----------------
      Gh(C)           1.726356590383     0.699984886370     0.101598182252    12.000000000000
      Gh(H)           2.607676590383     1.325144886370     0.100628182252     1.007825032230
      Gh(H)           0.765806590383     1.194664886370     0.102598182252     1.007825032230
      Gh(C)           1.820336590383    -0.628825113630     0.101578182252    12.000000000000
      Gh(H)           0.938966590383    -1.253835113630     0.102548182252     1.007825032230
      Gh(H)           2.780586590383    -1.124235113630     0.100578182252     1.007825032230
         C           -3.100633409617    -0.062305113630    -0.177631817748    12.000000000000
         H           -3.391203409617     0.983744886370    -0.177761817748     1.007825032230
         H           -2.510623409617    -0.273715113630    -1.064161817748     1.007825032230
         H           -2.511573409617    -0.273745113630     0.709528182252     1.007825032230
         H           -3.990793409617    -0.683455113630    -0.178111817748     1.007825032230

  Charge       = 0
  Multiplicity = 1
  Basis Set: AUG-CC-PVDZ
    Blend: AUG-CC-PVDZ
  Basis Set: (AUG-CC-PVDZ AUX)
    Blend: AUG-CC-PVDZ-JKFIT

    Orbital Energies [Eh]
    ---------------------

    Doubly Occupied:

       1A    -11.213678     2A     -0.945137     3A     -0.544904
       4A     -0.544883     5A     -0.544603

  @DF-RHF Final Energy:   -40.19962520974217

   => Energetics <=

    Nuclear Repulsion Energy =             13.4894905793734363
    One-Electron Energy =                 -79.7918213029876284
    Two-Electron Energy =                  26.1027055138720243
    Total Energy =                        -40.1996252097421660

  Dipole Moment: [D]
     X:    -0.0010      Y:     0.0010      Z:    -0.0001     Total:     0.0014

    SAPT Results
  --------------------------------------------------------------------------------------------------------
    Electrostatics                 -0.06825820 [mEh]      -0.04283267 [kcal/mol]      -0.17921188 [kJ/mol]
      Elst10,r                     -0.06882767 [mEh]      -0.04319001 [kcal/mol]      -0.18070702 [kJ/mol]
      Elst12,r                      0.00056947 [mEh]       0.00035735 [kcal/mol]       0.00149514 [kJ/mol]

    Exchange                        0.04627747 [mEh]       0.02903955 [kcal/mol]       0.12150148 [kJ/mol]
      Exch10                        0.03896296 [mEh]       0.02444962 [kcal/mol]       0.10229723 [kJ/mol]
      Exch10(S^2)                   0.03896192 [mEh]       0.02444897 [kcal/mol]       0.10229450 [kJ/mol]
      Exch11(S^2)                   0.00015594 [mEh]       0.00009786 [kcal/mol]       0.00040943 [kJ/mol]
      Exch12(S^2)                   0.00715857 [mEh]       0.00449207 [kcal/mol]       0.01879482 [kJ/mol]

    Induction                      -0.00589967 [mEh]      -0.00370210 [kcal/mol]      -0.01548959 [kJ/mol]
      Ind20,r                      -0.00498088 [mEh]      -0.00312555 [kcal/mol]      -0.01307730 [kJ/mol]
      Ind22                        -0.00071771 [mEh]      -0.00045037 [kcal/mol]      -0.00188434 [kJ/mol]
      Exch-Ind20,r                  0.00248950 [mEh]       0.00156218 [kcal/mol]       0.00653617 [kJ/mol]
      Exch-Ind22                    0.00035872 [mEh]       0.00022510 [kcal/mol]       0.00094181 [kJ/mol]
      delta HF,r (2)               -0.00304930 [mEh]      -0.00191346 [kcal/mol]      -0.00800594 [kJ/mol]

    Dispersion                     -0.43441948 [mEh]      -0.27260234 [kcal/mol]      -1.14056818 [kJ/mol]
      Disp20                       -0.42195400 [mEh]      -0.26478013 [kcal/mol]      -1.10784006 [kJ/mol]
      Disp21                        0.01147103 [mEh]       0.00719818 [kcal/mol]       0.03011719 [kJ/mol]
      Disp22 (SDQ)                  0.02495449 [mEh]       0.01565918 [kcal/mol]       0.06551799 [kJ/mol]
      Disp22 (T)                   -0.05129911 [mEh]      -0.03219068 [kcal/mol]      -0.13468579 [kJ/mol]
      Est. Disp22 (T)              -0.05427638 [mEh]      -0.03405894 [kcal/mol]      -0.14250261 [kJ/mol]
      Exch-Disp20                   0.00538538 [mEh]       0.00337938 [kcal/mol]       0.01413931 [kJ/mol]

  Total HF                         -0.03540540 [mEh]      -0.02221722 [kcal/mol]      -0.09295686 [kJ/mol]
  Total SAPT0                      -0.45197402 [mEh]      -0.28361798 [kcal/mol]      -1.18665761 [kJ/mol]
  Total SAPT2                      -0.44444902 [mEh]      -0.27889597 [kcal/mol]      -1.16690074 [kJ/mol]
  Total SAPT2+                     -0.46229988 [mEh]      -0.29009755 [kcal/mol]      -1.21376817 [kJ/mol]

  Special recipe for scaled SAPT0 (see Manual):
    Electrostatics sSAPT0          -0.06882767 [mEh]      -0.04319001 [kcal/mol]      -0.18070702 [kJ/mol]
    Exchange sSAPT0                 0.03896296 [mEh]       0.02444962 [kcal/mol]       0.10229723 [kJ/mol]
    Induction sSAPT0               -0.00554049 [mEh]      -0.00347671 [kcal/mol]      -0.01454654 [kJ/mol]
    Dispersion sSAPT0              -0.41656819 [mEh]      -0.26140048 [kcal/mol]      -1.09369963 [kJ/mol]
  Total sSAPT0                     -0.45197339 [mEh]      -0.28361758 [kcal/mol]      -1.18665596 [kJ/mol]
  --------------------------------------------------------------------------------------------------------

*** Psi4 exiting successfully. Buy a developer a beer!
