                               Psi4 1.4a2.dev224

  ==> Input File <==

--------------------------------------------------------------------------
#Generated by lconvert.py for sapt job

memory 20 GB

molecule  {
0 1
  C      -1.635460   -0.589710    0.000260
  C      -1.253730    0.687370   -0.000210
  H      -1.799160   -1.127790   -0.922420
  H      -1.798090   -1.127430    0.923340
  H      -1.091050    1.226750    0.921740
  H      -1.092110    1.226260   -0.922630
--
0 1
  N       2.619960    0.036270   -0.000460
  H       3.003330   -0.433920    0.809000
  H       1.629300   -0.172690   -0.001900
  H       3.007110   -0.439940   -0.804590
units angstrom
no_reorient
symmetry c1
}

set {
scf_type DF
basis aug-cc-pvdz
freeze_core True
guess SAD
}
energy('sapt2+')
--------------------------------------------------------------------------

  //              Dimer HF             //
    Molecular point group: c1
  Charge       = 0
  Multiplicity = 1
  Basis Set: AUG-CC-PVDZ
    Blend: AUG-CC-PVDZ
  Basis Set: (AUG-CC-PVDZ AUX)
    Blend: AUG-CC-PVDZ-JKFIT
  @DF-RHF Final Energy:  -134.24979386298139
    Total Energy =                       -134.2497938629813916
  //            Monomer A HF           //
    Molecular point group: c1
  Multiplicity = 1
  Basis Set: AUG-CC-PVDZ
    Blend: AUG-CC-PVDZ
  Basis Set: (AUG-CC-PVDZ AUX)
    Blend: AUG-CC-PVDZ-JKFIT
  @DF-RHF Final Energy:   -78.04369564032136
    Total Energy =                        -78.0436956403213742
  //            Monomer B HF           //
    Molecular point group: c1

    Geometry (in Angstrom), charge = 0, multiplicity = 1:

       Center              X                  Y                   Z               Mass
    ------------   -----------------  -----------------  -----------------  -----------------
      Gh(C)          -1.721817719073    -0.608006699329     0.000332829452    12.000000000000
      Gh(C)          -1.340087719073     0.669073300671    -0.000137170548    12.000000000000
      Gh(H)          -1.885517719073    -1.146086699329    -0.922347170548     1.007825032230
      Gh(H)          -1.884447719073    -1.145726699329     0.923412829452     1.007825032230
      Gh(H)          -1.177407719073     1.208453300671     0.921812829452     1.007825032230
      Gh(H)          -1.178467719073     1.207963300671    -0.922557170548     1.007825032230
         N            2.533602280927     0.017973300671    -0.000387170548    14.003074004430
         H            2.916972280927    -0.452216699329     0.809072829452     1.007825032230
         H            1.542942280927    -0.190986699329    -0.001827170548     1.007825032230
         H            2.920752280927    -0.458236699329    -0.804517170548     1.007825032230

  Charge       = 0
  Multiplicity = 1
  Basis Set: AUG-CC-PVDZ
    Blend: AUG-CC-PVDZ
  Basis Set: (AUG-CC-PVDZ AUX)
    Blend: AUG-CC-PVDZ-JKFIT

    Orbital Energies [Eh]
    ---------------------

    Doubly Occupied:

       1A    -15.552007     2A     -1.145704     3A     -0.627950
       4A     -0.627492     5A     -0.431167

  @DF-RHF Final Energy:   -56.20539647669590

   => Energetics <=

    Nuclear Repulsion Energy =             11.9649346160373504
    One-Electron Energy =                 -99.5720189141428165
    Two-Electron Energy =                  31.4016878214095669
    Total Energy =                        -56.2053964766958956

  Dipole Moment: [D]
     X:    -0.3124      Y:    -1.6318      Z:     0.0054     Total:     1.6614

    SAPT Results
  --------------------------------------------------------------------------------------------------------
    Electrostatics                 -1.50311649 [mEh]      -0.94321984 [kcal/mol]      -3.94643180 [kJ/mol]
      Elst10,r                     -1.72039188 [mEh]      -1.07956220 [kcal/mol]      -4.51688826 [kJ/mol]
      Elst12,r                      0.21727539 [mEh]       0.13634237 [kcal/mol]       0.57045646 [kJ/mol]

    Exchange                        1.38499853 [mEh]       0.86909970 [kcal/mol]       3.63631314 [kJ/mol]
      Exch10                        1.33563484 [mEh]       0.83812351 [kcal/mol]       3.50670878 [kJ/mol]
      Exch10(S^2)                   1.33374164 [mEh]       0.83693552 [kcal/mol]       3.50173820 [kJ/mol]
      Exch11(S^2)                   0.04930777 [mEh]       0.03094109 [kcal/mol]       0.12945752 [kJ/mol]
      Exch12(S^2)                   0.00005593 [mEh]       0.00003510 [kcal/mol]       0.00014684 [kJ/mol]

    Induction                      -0.31408690 [mEh]      -0.19709250 [kcal/mol]      -0.82463504 [kJ/mol]
      Ind20,r                      -0.46872162 [mEh]      -0.29412726 [kcal/mol]      -1.23062844 [kJ/mol]
      Ind22                         0.00753575 [mEh]       0.00472876 [kcal/mol]       0.01978511 [kJ/mol]
      Exch-Ind20,r                  0.28821665 [mEh]       0.18085868 [kcal/mol]       0.75671271 [kJ/mol]
      Exch-Ind22                   -0.00463373 [mEh]      -0.00290771 [kcal/mol]      -0.01216585 [kJ/mol]
      delta HF,r (2)               -0.13648395 [mEh]      -0.08564497 [kcal/mol]      -0.35833857 [kJ/mol]

    Dispersion                     -1.32748101 [mEh]      -0.83300691 [kcal/mol]      -3.48530092 [kJ/mol]
      Disp20                       -1.41568409 [mEh]      -0.88835518 [kcal/mol]      -3.71687806 [kJ/mol]
      Disp21                        0.06536489 [mEh]       0.04101709 [kcal/mol]       0.17161550 [kJ/mol]
      Disp22 (SDQ)                  0.10293946 [mEh]       0.06459549 [kcal/mol]       0.27026752 [kJ/mol]
      Disp22 (T)                   -0.18923237 [mEh]      -0.11874511 [kcal/mol]      -0.49682953 [kJ/mol]
      Est. Disp22 (T)              -0.21088708 [mEh]      -0.13233364 [kcal/mol]      -0.55368396 [kJ/mol]
      Exch-Disp20                   0.13078580 [mEh]       0.08206933 [kcal/mol]       0.34337807 [kJ/mol]

  Total HF                         -0.70174596 [mEh]      -0.44035224 [kcal/mol]      -1.84243378 [kJ/mol]
  Total SAPT0                      -1.98664425 [mEh]      -1.24663809 [kcal/mol]      -5.21593376 [kJ/mol]
  Total SAPT2                      -1.71710314 [mEh]      -1.07749849 [kcal/mol]      -4.50825369 [kJ/mol]
  Total SAPT2+                     -1.75968587 [mEh]      -1.10421956 [kcal/mol]      -4.62005462 [kJ/mol]

  Special recipe for scaled SAPT0 (see Manual):
    Electrostatics sSAPT0          -1.72039188 [mEh]      -1.07956220 [kcal/mol]      -4.51688826 [kJ/mol]
    Exchange sSAPT0                 1.33563484 [mEh]       0.83812351 [kcal/mol]       3.50670878 [kJ/mol]
    Induction sSAPT0               -0.31575984 [mEh]      -0.19814229 [kcal/mol]      -0.82902735 [kJ/mol]
    Dispersion sSAPT0              -1.28434056 [mEh]      -0.80593587 [kcal/mol]      -3.37203568 [kJ/mol]
  Total sSAPT0                     -1.98485744 [mEh]      -1.24551685 [kcal/mol]      -5.21124250 [kJ/mol]
  --------------------------------------------------------------------------------------------------------

*** Psi4 exiting successfully. Buy a developer a beer!
