                               Psi4 1.4a2.dev224

  ==> Input File <==

--------------------------------------------------------------------------
#Generated by lconvert.py for sapt job

memory 20 GB

molecule  {
0 1
  C      -1.635460   -0.589710    0.000260
  C      -1.253730    0.687370   -0.000210
  H      -1.799160   -1.127790   -0.922420
  H      -1.798090   -1.127430    0.923340
  H      -1.091050    1.226750    0.921740
  H      -1.092110    1.226260   -0.922630
--
0 1
  N       3.221520    0.034400   -0.000530
  H       3.604890   -0.435790    0.808930
  H       2.230860   -0.174570   -0.001970
  H       3.608670   -0.441820   -0.804660
units angstrom
no_reorient
symmetry c1
}

set {
scf_type DF
basis aug-cc-pvdz
freeze_core True
guess SAD
}
energy('sapt2+')
--------------------------------------------------------------------------

  //              Dimer HF             //
    Molecular point group: c1
  Charge       = 0
  Multiplicity = 1
  Basis Set: AUG-CC-PVDZ
    Blend: AUG-CC-PVDZ
  Basis Set: (AUG-CC-PVDZ AUX)
    Blend: AUG-CC-PVDZ-JKFIT
  @DF-RHF Final Energy:  -134.24959787356292
    Total Energy =                       -134.2495978735629194
  //            Monomer A HF           //
    Molecular point group: c1
  Multiplicity = 1
  Basis Set: AUG-CC-PVDZ
    Blend: AUG-CC-PVDZ
  Basis Set: (AUG-CC-PVDZ AUX)
    Blend: AUG-CC-PVDZ-JKFIT
  @DF-RHF Final Energy:   -78.04357362147245
    Total Energy =                        -78.0435736214724471
  //            Monomer B HF           //
    Molecular point group: c1

    Geometry (in Angstrom), charge = 0, multiplicity = 1:

       Center              X                  Y                   Z               Mass
    ------------   -----------------  -----------------  -----------------  -----------------
      Gh(C)          -1.949136400552    -0.607299612687     0.000359281190    12.000000000000
      Gh(C)          -1.567406400552     0.669780387313    -0.000110718810    12.000000000000
      Gh(H)          -2.112836400552    -1.145379612687    -0.922320718810     1.007825032230
      Gh(H)          -2.111766400552    -1.145019612687     0.923439281190     1.007825032230
      Gh(H)          -1.404726400552     1.209160387313     0.921839281190     1.007825032230
      Gh(H)          -1.405786400552     1.208670387313    -0.922530718810     1.007825032230
         N            2.907843599448     0.016810387313    -0.000430718810    14.003074004430
         H            3.291213599448    -0.453379612687     0.809029281190     1.007825032230
         H            1.917183599448    -0.192159612687    -0.001870718810     1.007825032230
         H            3.294993599448    -0.459409612687    -0.804560718810     1.007825032230

  Charge       = 0
  Multiplicity = 1
  Basis Set: AUG-CC-PVDZ
    Blend: AUG-CC-PVDZ
  Basis Set: (AUG-CC-PVDZ AUX)
    Blend: AUG-CC-PVDZ-JKFIT

    Orbital Energies [Eh]
    ---------------------

    Doubly Occupied:

       1A    -15.552046     2A     -1.145706     3A     -0.627944
       4A     -0.627503     5A     -0.431186

  @DF-RHF Final Energy:   -56.20536041001812

   => Energetics <=

    Nuclear Repulsion Energy =             11.9649104359613183
    One-Electron Energy =                 -99.5717713702522929
    Two-Electron Energy =                  31.4015005242728655
    Total Energy =                        -56.2053604100181161

  Dipole Moment: [D]
     X:    -0.3119      Y:    -1.6320      Z:     0.0054     Total:     1.6616

    SAPT Results
  --------------------------------------------------------------------------------------------------------
    Electrostatics                 -0.67717268 [mEh]      -0.42493227 [kcal/mol]      -1.77791662 [kJ/mol]
      Elst10,r                     -0.79690291 [mEh]      -0.50006413 [kcal/mol]      -2.09226830 [kJ/mol]
      Elst12,r                      0.11973023 [mEh]       0.07513185 [kcal/mol]       0.31435168 [kJ/mol]

    Exchange                        0.21941561 [mEh]       0.13768537 [kcal/mol]       0.57607559 [kJ/mol]
      Exch10                        0.21118175 [mEh]       0.13251855 [kcal/mol]       0.55445761 [kJ/mol]
      Exch10(S^2)                   0.21112577 [mEh]       0.13248342 [kcal/mol]       0.55431064 [kJ/mol]
      Exch11(S^2)                   0.00729218 [mEh]       0.00457591 [kcal/mol]       0.01914561 [kJ/mol]
      Exch12(S^2)                   0.00094168 [mEh]       0.00059091 [kcal/mol]       0.00247237 [kJ/mol]

    Induction                      -0.07607011 [mEh]      -0.04773472 [kcal/mol]      -0.19972205 [kJ/mol]
      Ind20,r                      -0.09752761 [mEh]      -0.06119950 [kcal/mol]      -0.25605869 [kJ/mol]
      Ind22                         0.00351764 [mEh]       0.00220736 [kcal/mol]       0.00923557 [kJ/mol]
      Exch-Ind20,r                  0.04066864 [mEh]       0.02551996 [kcal/mol]       0.10677551 [kJ/mol]
      Exch-Ind22                   -0.00146684 [mEh]      -0.00092046 [kcal/mol]      -0.00385120 [kJ/mol]
      delta HF,r (2)               -0.02126195 [mEh]      -0.01334208 [kcal/mol]      -0.05582325 [kJ/mol]

    Dispersion                     -0.53326870 [mEh]      -0.33463116 [kcal/mol]      -1.40009679 [kJ/mol]
      Disp20                       -0.54206144 [mEh]      -0.34014869 [kcal/mol]      -1.42318211 [kJ/mol]
      Disp21                        0.02837236 [mEh]       0.01780392 [kcal/mol]       0.07449161 [kJ/mol]
      Disp22 (SDQ)                  0.03931689 [mEh]       0.02467172 [kcal/mol]       0.10322647 [kJ/mol]
      Disp22 (T)                   -0.07619706 [mEh]      -0.04781438 [kcal/mol]      -0.20005535 [kJ/mol]
      Est. Disp22 (T)              -0.08264128 [mEh]      -0.05185819 [kcal/mol]      -0.21697465 [kJ/mol]
      Exch-Disp20                   0.02374477 [mEh]       0.01490007 [kcal/mol]       0.06234189 [kJ/mol]

  Total HF                         -0.66384207 [mEh]      -0.41656719 [kcal/mol]      -1.74291712 [kJ/mol]
  Total SAPT0                      -1.18215874 [mEh]      -0.74181581 [kcal/mol]      -3.10375734 [kJ/mol]
  Total SAPT2                      -1.05214385 [mEh]      -0.66023024 [kcal/mol]      -2.76240331 [kJ/mol]
  Total SAPT2+                     -1.06709589 [mEh]      -0.66961278 [kcal/mol]      -2.80165987 [kJ/mol]

  Special recipe for scaled SAPT0 (see Manual):
    Electrostatics sSAPT0          -0.79690291 [mEh]      -0.50006413 [kcal/mol]      -2.09226830 [kJ/mol]
    Exchange sSAPT0                 0.21118175 [mEh]       0.13251855 [kcal/mol]       0.55445761 [kJ/mol]
    Induction sSAPT0               -0.07808856 [mEh]      -0.04900131 [kcal/mol]      -0.20502147 [kJ/mol]
    Dispersion sSAPT0              -0.51829777 [mEh]      -0.32523676 [kcal/mol]      -1.36079062 [kJ/mol]
  Total sSAPT0                     -1.18210749 [mEh]      -0.74178365 [kcal/mol]      -3.10362279 [kJ/mol]
  --------------------------------------------------------------------------------------------------------

*** Psi4 exiting successfully. Buy a developer a beer!
