                               Psi4 1.4a2.dev224

  ==> Input File <==

--------------------------------------------------------------------------
#Generated by lconvert.py for sapt job

memory 20 GB

molecule  {
0 1
  C      -1.635460   -0.589710    0.000260
  C      -1.253730    0.687370   -0.000210
  H      -1.799160   -1.127790   -0.922420
  H      -1.798090   -1.127430    0.923340
  H      -1.091050    1.226750    0.921740
  H      -1.092110    1.226260   -0.922630
--
0 1
  N       1.449270    0.039910   -0.000320
  H       1.832650   -0.430280    0.809140
  H       0.458610   -0.169050   -0.001760
  H       1.836430   -0.436300   -0.804450
units angstrom
no_reorient
symmetry c1
}

set {
scf_type DF
basis aug-cc-pvdz
freeze_core True
guess SAD
}
energy('sapt2+')
--------------------------------------------------------------------------

  //              Dimer HF             //
    Molecular point group: c1
  Charge       = 0
  Multiplicity = 1
  Basis Set: AUG-CC-PVDZ
    Blend: AUG-CC-PVDZ
  Basis Set: (AUG-CC-PVDZ AUX)
    Blend: AUG-CC-PVDZ-JKFIT
  @DF-RHF Final Energy:  -134.23206667748372
    Total Energy =                       -134.2320666774837150
  //            Monomer A HF           //
    Molecular point group: c1
  Multiplicity = 1
  Basis Set: AUG-CC-PVDZ
    Blend: AUG-CC-PVDZ
  Basis Set: (AUG-CC-PVDZ AUX)
    Blend: AUG-CC-PVDZ-JKFIT
  @DF-RHF Final Energy:   -78.04395547679651
    Total Energy =                        -78.0439554767965120
  //            Monomer B HF           //
    Molecular point group: c1

    Geometry (in Angstrom), charge = 0, multiplicity = 1:

       Center              X                  Y                   Z               Mass
    ------------   -----------------  -----------------  -----------------  -----------------
      Gh(C)          -1.279435515942    -0.609382189722     0.000279925975    12.000000000000
      Gh(C)          -0.897705515942     0.667697810278    -0.000190074025    12.000000000000
      Gh(H)          -1.443135515942    -1.147462189722    -0.922400074025     1.007825032230
      Gh(H)          -1.442065515942    -1.147102189722     0.923359925975     1.007825032230
      Gh(H)          -0.735025515942     1.207077810278     0.921759925975     1.007825032230
      Gh(H)          -0.736085515942     1.206587810278    -0.922610074025     1.007825032230
         N            1.805294484058     0.020237810278    -0.000300074025    14.003074004430
         H            2.188674484058    -0.449952189722     0.809159925975     1.007825032230
         H            0.814634484058    -0.188722189722    -0.001740074025     1.007825032230
         H            2.192454484058    -0.455972189722    -0.804430074025     1.007825032230

  Charge       = 0
  Multiplicity = 1
  Basis Set: AUG-CC-PVDZ
    Blend: AUG-CC-PVDZ
  Basis Set: (AUG-CC-PVDZ AUX)
    Blend: AUG-CC-PVDZ-JKFIT

    Orbital Energies [Eh]
    ---------------------

    Doubly Occupied:

       1A    -15.551954     2A     -1.145655     3A     -0.627909
       4A     -0.627442     5A     -0.431073

  @DF-RHF Final Energy:   -56.20561836490950

   => Energetics <=

    Nuclear Repulsion Energy =             11.9649035966881510
    One-Electron Energy =                 -99.5729763806742056
    Two-Electron Energy =                  31.4024544190765553
    Total Energy =                        -56.2056183649095047

  Dipole Moment: [D]
     X:    -0.3145      Y:    -1.6297      Z:     0.0054     Total:     1.6598

    SAPT Results
  --------------------------------------------------------------------------------------------------------
    Electrostatics                -17.37427383 [mEh]     -10.90252143 [kcal/mol]     -45.61614964 [kJ/mol]
      Elst10,r                    -18.26977191 [mEh]     -11.46445496 [kcal/mol]     -47.96727955 [kJ/mol]
      Elst12,r                      0.89549809 [mEh]       0.56193353 [kcal/mol]       2.35112991 [kJ/mol]

    Exchange                       44.14880918 [mEh]      27.70379602 [kcal/mol]     115.91268253 [kJ/mol]
      Exch10                       43.25705274 [mEh]      27.14421040 [kcal/mol]     113.57137632 [kJ/mol]
      Exch10(S^2)                  41.95211347 [mEh]      26.32534865 [kcal/mol]     110.14525874 [kJ/mol]
      Exch11(S^2)                   1.25738423 [mEh]       0.78902051 [kcal/mol]       3.30126183 [kJ/mol]
      Exch12(S^2)                  -0.36562779 [mEh]      -0.22943490 [kcal/mol]      -0.95995562 [kJ/mol]

    Induction                      -7.55113248 [mEh]      -4.73840717 [kcal/mol]     -19.82549558 [kJ/mol]
      Ind20,r                     -16.84598771 [mEh]     -10.57101688 [kcal/mol]     -44.22913464 [kJ/mol]
      Ind22                        -0.33626352 [mEh]      -0.21100855 [kcal/mol]      -0.88285975 [kJ/mol]
      Exch-Ind20,r                 13.28826456 [mEh]       8.33851190 [kcal/mol]      34.88833379 [kJ/mol]
      Exch-Ind22                    0.26524765 [mEh]       0.16644541 [kcal/mol]       0.69640761 [kJ/mol]
      delta HF,r (2)               -3.92239345 [mEh]      -2.46133905 [kcal/mol]     -10.29824259 [kJ/mol]

    Dispersion                     -9.16544664 [mEh]      -5.75140460 [kcal/mol]     -24.06387684 [kJ/mol]
      Disp20                      -12.23808338 [mEh]      -7.67951326 [kcal/mol]     -32.13108348 [kJ/mol]
      Disp21                        1.07045567 [mEh]       0.67172108 [kcal/mol]       2.81048098 [kJ/mol]
      Disp22 (SDQ)                  0.76636925 [mEh]       0.48090396 [kcal/mol]       2.01210219 [kJ/mol]
      Disp22 (T)                   -1.43463696 [mEh]      -0.90024829 [kcal/mol]      -3.76663883 [kJ/mol]
      Est. Disp22 (T)              -1.56870006 [mEh]      -0.98437415 [kcal/mol]      -4.11862144 [kJ/mol]
      Exch-Disp20                   2.80451187 [mEh]       1.75985777 [kcal/mol]       7.36324491 [kJ/mol]

  Total HF                         17.50716422 [mEh]      10.98591141 [kcal/mol]      45.96505333 [kJ/mol]
  Total SAPT0                       8.07359272 [mEh]       5.06625592 [kcal/mol]      21.19721476 [kJ/mol]
  Total SAPT2                       9.78983137 [mEh]       6.14321193 [kcal/mol]      25.70319873 [kJ/mol]
  Total SAPT2+                     10.05795624 [mEh]       6.31146282 [kcal/mol]      26.40716046 [kJ/mol]

  Special recipe for scaled SAPT0 (see Manual):
    Electrostatics sSAPT0         -18.26977191 [mEh]     -11.46445496 [kcal/mol]     -47.96727955 [kJ/mol]
    Exchange sSAPT0                43.25705274 [mEh]      27.14421040 [kcal/mol]     113.57137632 [kJ/mol]
    Induction sSAPT0               -6.20113329 [mEh]      -3.89126989 [kcal/mol]     -16.28107321 [kJ/mol]
    Dispersion sSAPT0              -9.16363980 [mEh]      -5.75027079 [kcal/mol]     -24.05913298 [kJ/mol]
  Total sSAPT0                      9.62250774 [mEh]       6.03821477 [kcal/mol]      25.26389058 [kJ/mol]
  --------------------------------------------------------------------------------------------------------

*** Psi4 exiting successfully. Buy a developer a beer!
