                               Psi4 1.4a2.dev224

  ==> Input File <==

--------------------------------------------------------------------------
#Generated by lconvert.py for sapt job

memory 20 GB

molecule  {
0 1
  C      -1.635460   -0.589710    0.000260
  C      -1.253730    0.687370   -0.000210
  H      -1.799160   -1.127790   -0.922420
  H      -1.798090   -1.127430    0.923340
  H      -1.091050    1.226750    0.921740
  H      -1.092110    1.226260   -0.922630
--
0 1
  N       2.333570    0.037160   -0.000420
  H       2.716940   -0.433030    0.809030
  H       1.342910   -0.171800   -0.001860
  H       2.720720   -0.439050   -0.804550
units angstrom
no_reorient
symmetry c1
}

set {
scf_type DF
basis aug-cc-pvdz
freeze_core True
guess SAD
}
energy('sapt2+')
--------------------------------------------------------------------------

  //              Dimer HF             //
    Molecular point group: c1
  Charge       = 0
  Multiplicity = 1
  Basis Set: AUG-CC-PVDZ
    Blend: AUG-CC-PVDZ
  Basis Set: (AUG-CC-PVDZ AUX)
    Blend: AUG-CC-PVDZ-JKFIT
  @DF-RHF Final Energy:  -134.24941219317819
    Total Energy =                       -134.2494121931782161
  //            Monomer A HF           //
    Molecular point group: c1
  Multiplicity = 1
  Basis Set: AUG-CC-PVDZ
    Blend: AUG-CC-PVDZ
  Basis Set: (AUG-CC-PVDZ AUX)
    Blend: AUG-CC-PVDZ-JKFIT
  @DF-RHF Final Energy:   -78.04376527985018
    Total Energy =                        -78.0437652798501773
  //            Monomer B HF           //
    Molecular point group: c1

    Geometry (in Angstrom), charge = 0, multiplicity = 1:

       Center              X                  Y                   Z               Mass
    ------------   -----------------  -----------------  -----------------  -----------------
      Gh(C)          -1.613596099967    -0.608343014288     0.000317937846    12.000000000000
      Gh(C)          -1.231866099967     0.668736985712    -0.000152062154    12.000000000000
      Gh(H)          -1.777296099967    -1.146423014288    -0.922362062154     1.007825032230
      Gh(H)          -1.776226099967    -1.146063014288     0.923397937846     1.007825032230
      Gh(H)          -1.069186099967     1.208116985712     0.921797937846     1.007825032230
      Gh(H)          -1.070246099967     1.207626985712    -0.922572062154     1.007825032230
         N            2.355433900033     0.018526985712    -0.000362062154    14.003074004430
         H            2.738803900033    -0.451663014288     0.809087937846     1.007825032230
         H            1.364773900033    -0.190433014288    -0.001802062154     1.007825032230
         H            2.742583900033    -0.457683014288    -0.804492062154     1.007825032230

  Charge       = 0
  Multiplicity = 1
  Basis Set: AUG-CC-PVDZ
    Blend: AUG-CC-PVDZ
  Basis Set: (AUG-CC-PVDZ AUX)
    Blend: AUG-CC-PVDZ-JKFIT

    Orbital Energies [Eh]
    ---------------------

    Doubly Occupied:

       1A    -15.551986     2A     -1.145701     3A     -0.627952
       4A     -0.627481     5A     -0.431151

  @DF-RHF Final Energy:   -56.20542818182687

   => Energetics <=

    Nuclear Repulsion Energy =             11.9649666311527252
    One-Electron Energy =                 -99.5722461442956899
    Two-Electron Energy =                  31.4018513313160987
    Total Energy =                        -56.2054281818268748

  Dipole Moment: [D]
     X:    -0.3129      Y:    -1.6315      Z:     0.0054     Total:     1.6613

    SAPT Results
  --------------------------------------------------------------------------------------------------------
    Electrostatics                 -2.44173689 [mEh]      -1.53221303 [kcal/mol]      -6.41077931 [kJ/mol]
      Elst10,r                     -2.74065272 [mEh]      -1.71978555 [kcal/mol]      -7.19558274 [kJ/mol]
      Elst12,r                      0.29891584 [mEh]       0.18757252 [kcal/mol]       0.78480342 [kJ/mol]

    Exchange                        3.29011618 [mEh]       2.06457907 [kcal/mol]       8.63819883 [kJ/mol]
      Exch10                        3.17933924 [mEh]       1.99506549 [kcal/mol]       8.34735402 [kJ/mol]
      Exch10(S^2)                   3.16951710 [mEh]       1.98890201 [kcal/mol]       8.32156601 [kJ/mol]
      Exch11(S^2)                   0.11716414 [mEh]       0.07352161 [kcal/mol]       0.30761440 [kJ/mol]
      Exch12(S^2)                  -0.00638720 [mEh]      -0.00400803 [kcal/mol]      -0.01676959 [kJ/mol]

    Induction                      -0.65514670 [mEh]      -0.41111076 [kcal/mol]      -1.72008743 [kJ/mol]
      Ind20,r                      -1.06995596 [mEh]      -0.67140750 [kcal/mol]      -2.80916900 [kJ/mol]
      Ind22                         0.00738492 [mEh]       0.00463411 [kcal/mol]       0.01938911 [kJ/mol]
      Exch-Ind20,r                  0.74087938 [mEh]       0.46490883 [kcal/mol]       1.94517855 [kJ/mol]
      Exch-Ind22                   -0.00511361 [mEh]      -0.00320884 [kcal/mol]      -0.01342578 [kJ/mol]
      delta HF,r (2)               -0.32834144 [mEh]      -0.20603736 [kcal/mol]      -0.86206032 [kJ/mol]

    Dispersion                     -2.09245365 [mEh]      -1.31303449 [kcal/mol]      -5.49373630 [kJ/mol]
      Disp20                       -2.32330822 [mEh]      -1.45789792 [kcal/mol]      -6.09984490 [kJ/mol]
      Disp21                        0.11349153 [mEh]       0.07121701 [kcal/mol]       0.29797198 [kJ/mol]
      Disp22 (SDQ)                  0.16782092 [mEh]       0.10530922 [kcal/mol]       0.44061376 [kJ/mol]
      Disp22 (T)                   -0.30508766 [mEh]      -0.19144539 [kcal/mol]      -0.80100753 [kJ/mol]
      Est. Disp22 (T)              -0.33916102 [mEh]      -0.21282675 [kcal/mol]      -0.89046712 [kJ/mol]
      Exch-Disp20                   0.28870314 [mEh]       0.18116395 [kcal/mol]       0.75798998 [kJ/mol]

  Total HF                         -0.21873150 [mEh]      -0.13725609 [kcal/mol]      -0.57427948 [kJ/mol]
  Total SAPT0                      -2.25333659 [mEh]      -1.41399006 [kcal/mol]      -5.91613439 [kJ/mol]
  Total SAPT2                      -1.84137250 [mEh]      -1.15547869 [kcal/mol]      -4.83452283 [kJ/mol]
  Total SAPT2+                     -1.89922106 [mEh]      -1.19177921 [kcal/mol]      -4.98640422 [kJ/mol]

  Special recipe for scaled SAPT0 (see Manual):
    Electrostatics sSAPT0          -2.74065272 [mEh]      -1.71978555 [kcal/mol]      -7.19558274 [kJ/mol]
    Exchange sSAPT0                 3.17933924 [mEh]       1.99506549 [kcal/mol]       8.34735402 [kJ/mol]
    Induction sSAPT0               -0.65050883 [mEh]      -0.40820046 [kcal/mol]      -1.70791071 [kJ/mol]
    Dispersion sSAPT0              -2.03191274 [mEh]      -1.27504449 [kcal/mol]      -5.33478617 [kJ/mol]
  Total sSAPT0                     -2.24373506 [mEh]      -1.40796501 [kcal/mol]      -5.89092559 [kJ/mol]
  --------------------------------------------------------------------------------------------------------

*** Psi4 exiting successfully. Buy a developer a beer!
