                               Psi4 1.4a2.dev224

  ==> Input File <==

--------------------------------------------------------------------------
#Generated by lconvert.py for sapt job

memory 20 GB

molecule  {
0 1
  C      -1.635460   -0.589710    0.000260
  C      -1.253730    0.687370   -0.000210
  H      -1.799160   -1.127790   -0.922420
  H      -1.798090   -1.127430    0.923340
  H      -1.091050    1.226750    0.921740
  H      -1.092110    1.226260   -0.922630
--
0 1
  N       4.123860    0.031590   -0.000640
  H       4.507230   -0.438600    0.808820
  H       3.133200   -0.177370   -0.002080
  H       4.511010   -0.444620   -0.804770
units angstrom
no_reorient
symmetry c1
}

set {
scf_type DF
basis aug-cc-pvdz
freeze_core True
guess SAD
}
energy('sapt2+')
--------------------------------------------------------------------------

  //              Dimer HF             //
    Molecular point group: c1
  Charge       = 0
  Multiplicity = 1
  Basis Set: AUG-CC-PVDZ
    Blend: AUG-CC-PVDZ
  Basis Set: (AUG-CC-PVDZ AUX)
    Blend: AUG-CC-PVDZ-JKFIT
  @DF-RHF Final Energy:  -134.24922192215919
    Total Energy =                       -134.2492219221591654
  //            Monomer A HF           //
    Molecular point group: c1
  Multiplicity = 1
  Basis Set: AUG-CC-PVDZ
    Blend: AUG-CC-PVDZ
  Basis Set: (AUG-CC-PVDZ AUX)
    Blend: AUG-CC-PVDZ-JKFIT
  @DF-RHF Final Energy:   -78.04354609525804
    Total Energy =                        -78.0435460952580371
  //            Monomer B HF           //
    Molecular point group: c1

    Geometry (in Angstrom), charge = 0, multiplicity = 1:

       Center              X                  Y                   Z               Mass
    ------------   -----------------  -----------------  -----------------  -----------------
      Gh(C)          -2.290114422771    -0.606238211682     0.000400848208    12.000000000000
      Gh(C)          -1.908384422771     0.670841788318    -0.000069151792    12.000000000000
      Gh(H)          -2.453814422771    -1.144318211682    -0.922279151792     1.007825032230
      Gh(H)          -2.452744422771    -1.143958211682     0.923480848208     1.007825032230
      Gh(H)          -1.745704422771     1.210221788318     0.921880848208     1.007825032230
      Gh(H)          -1.746764422771     1.209731788318    -0.922489151792     1.007825032230
         N            3.469205577229     0.015061788318    -0.000499151792    14.003074004430
         H            3.852575577229    -0.455128211682     0.808960848208     1.007825032230
         H            2.478545577229    -0.193898211682    -0.001939151792     1.007825032230
         H            3.856355577229    -0.461148211682    -0.804629151792     1.007825032230

  Charge       = 0
  Multiplicity = 1
  Basis Set: AUG-CC-PVDZ
    Blend: AUG-CC-PVDZ
  Basis Set: (AUG-CC-PVDZ AUX)
    Blend: AUG-CC-PVDZ-JKFIT

    Orbital Energies [Eh]
    ---------------------

    Doubly Occupied:

       1A    -15.552064     2A     -1.145703     3A     -0.627945
       4A     -0.627507     5A     -0.431193

  @DF-RHF Final Energy:   -56.20533910524364

   => Energetics <=

    Nuclear Repulsion Energy =             11.9649346160373486
    One-Electron Energy =                 -99.5717223205839730
    Two-Electron Energy =                  31.4014485993029808
    Total Energy =                        -56.2053391052436382

  Dipole Moment: [D]
     X:    -0.3116      Y:    -1.6317      Z:     0.0054     Total:     1.6612

    SAPT Results
  --------------------------------------------------------------------------------------------------------
    Electrostatics                 -0.28067930 [mEh]      -0.17612892 [kcal/mol]      -0.73692339 [kJ/mol]
      Elst10,r                     -0.33481464 [mEh]      -0.21009936 [kcal/mol]      -0.87905571 [kJ/mol]
      Elst12,r                      0.05413534 [mEh]       0.03397044 [kcal/mol]       0.14213232 [kJ/mol]

    Exchange                        0.01304736 [mEh]       0.00818734 [kcal/mol]       0.03425583 [kJ/mol]
      Exch10                        0.01250638 [mEh]       0.00784787 [kcal/mol]       0.03283550 [kJ/mol]
      Exch10(S^2)                   0.01250613 [mEh]       0.00784772 [kcal/mol]       0.03283484 [kJ/mol]
      Exch11(S^2)                   0.00035700 [mEh]       0.00022402 [kcal/mol]       0.00093730 [kJ/mol]
      Exch12(S^2)                   0.00018398 [mEh]       0.00011545 [kcal/mol]       0.00048303 [kJ/mol]

    Induction                      -0.01356531 [mEh]      -0.00851236 [kcal/mol]      -0.03561573 [kJ/mol]
      Ind20,r                      -0.01545960 [mEh]      -0.00970105 [kcal/mol]      -0.04058918 [kJ/mol]
      Ind22                         0.00100755 [mEh]       0.00063225 [kcal/mol]       0.00264531 [kJ/mol]
      Exch-Ind20,r                  0.00244673 [mEh]       0.00153535 [kcal/mol]       0.00642389 [kJ/mol]
      Exch-Ind22                   -0.00015946 [mEh]      -0.00010006 [kcal/mol]      -0.00041866 [kJ/mol]
      delta HF,r (2)               -0.00140053 [mEh]      -0.00087884 [kcal/mol]      -0.00367708 [kJ/mol]

    Dispersion                     -0.15792113 [mEh]      -0.09909701 [kcal/mol]      -0.41462187 [kJ/mol]
      Disp20                       -0.15808216 [mEh]      -0.09919805 [kcal/mol]      -0.41504466 [kJ/mol]
      Disp21                        0.01170672 [mEh]       0.00734608 [kcal/mol]       0.03073598 [kJ/mol]
      Disp22 (SDQ)                  0.01106216 [mEh]       0.00694161 [kcal/mol]       0.02904369 [kJ/mol]
      Disp22 (T)                   -0.02309529 [mEh]      -0.01449251 [kcal/mol]      -0.06063668 [kJ/mol]
      Est. Disp22 (T)              -0.02437131 [mEh]      -0.01529323 [kcal/mol]      -0.06398686 [kJ/mol]
      Exch-Disp20                   0.00176347 [mEh]       0.00110659 [kcal/mol]       0.00462998 [kJ/mol]

  Total HF                         -0.33672166 [mEh]      -0.21129603 [kcal/mol]      -0.88406259 [kJ/mol]
  Total SAPT0                      -0.49304035 [mEh]      -0.30938749 [kcal/mol]      -1.29447727 [kJ/mol]
  Total SAPT2                      -0.43751595 [mEh]      -0.27454540 [kcal/mol]      -1.14869796 [kJ/mol]
  Total SAPT2+                     -0.43911838 [mEh]      -0.27555095 [kcal/mol]      -1.15290516 [kJ/mol]

  Special recipe for scaled SAPT0 (see Manual):
    Electrostatics sSAPT0          -0.33481464 [mEh]      -0.21009936 [kcal/mol]      -0.87905571 [kJ/mol]
    Exchange sSAPT0                 0.01250638 [mEh]       0.00784787 [kcal/mol]       0.03283550 [kJ/mol]
    Induction sSAPT0               -0.01441325 [mEh]      -0.00904445 [kcal/mol]      -0.03784199 [kJ/mol]
    Dispersion sSAPT0              -0.15631859 [mEh]      -0.09809140 [kcal/mol]      -0.41041440 [kJ/mol]
  Total sSAPT0                     -0.49304010 [mEh]      -0.30938733 [kcal/mol]      -1.29447661 [kJ/mol]
  --------------------------------------------------------------------------------------------------------

*** Psi4 exiting successfully. Buy a developer a beer!
