                               Psi4 1.4a2.dev224

  ==> Input File <==

--------------------------------------------------------------------------
#Generated by lconvert.py for sapt job

memory 20 GB

molecule  {
0 1
  C      -1.635460   -0.589710    0.000260
  C      -1.253730    0.687370   -0.000210
  H      -1.799160   -1.127790   -0.922420
  H      -1.798090   -1.127430    0.923340
  H      -1.091050    1.226750    0.921740
  H      -1.092110    1.226260   -0.922630
--
0 1
  N       1.449270    0.039910   -0.000320
  H       1.832650   -0.430280    0.809140
  H       0.458610   -0.169050   -0.001760
  H       1.836430   -0.436300   -0.804450
units angstrom
no_reorient
symmetry c1
}

set {
scf_type DF
basis aug-cc-pvdz
freeze_core True
guess SAD
}
energy('sapt2+')
--------------------------------------------------------------------------

  //              Dimer HF             //
    Molecular point group: c1
  Charge       = 0
  Multiplicity = 1
  Basis Set: AUG-CC-PVDZ
    Blend: AUG-CC-PVDZ
  Basis Set: (AUG-CC-PVDZ AUX)
    Blend: AUG-CC-PVDZ-JKFIT
  @DF-RHF Final Energy:  -134.23206667748372
    Total Energy =                       -134.2320666774837150
  //            Monomer A HF           //
    Molecular point group: c1
  Basis Set: AUG-CC-PVDZ
    Blend: AUG-CC-PVDZ
  Basis Set: (AUG-CC-PVDZ AUX)
    Blend: AUG-CC-PVDZ-JKFIT
  @DF-RHF Final Energy:   -78.04395547679651
    Total Energy =                        -78.0439554767965120
  //            Monomer B HF           //
  Basis Set: AUG-CC-PVDZ
    Blend: AUG-CC-PVDZ
  Basis Set: (AUG-CC-PVDZ AUX)
    Blend: AUG-CC-PVDZ-JKFIT
  @DF-RHF Final Energy:   -56.20561836490950
    Total Energy =                        -56.2056183649095047
*** Psi4 exiting successfully. Buy a developer a beer!
                               Psi4 1.4a2.dev224
  //              Dimer HF             //
  Basis Set: AUG-CC-PVDZ
    Blend: AUG-CC-PVDZ
  Basis Set: (AUG-CC-PVDZ AUX)
    Blend: AUG-CC-PVDZ-JKFIT
  @DF-RHF Final Energy:  -134.24347612247556
    Total Energy =                       -134.2434761224755562
  @DF-RHF Final Energy:   -78.04387708367624
    Total Energy =                        -78.0438770836762359
  @DF-RHF Final Energy:   -56.20553754042160
    Total Energy =                        -56.2055375404216022
*** Psi4 exiting successfully. Buy a developer a beer!
                               Psi4 1.4a2.dev224
  @DF-RHF Final Energy:  -134.24788463216862
    Total Energy =                       -134.2478846321686206
  @DF-RHF Final Energy:   -78.04382637629432
    Total Energy =                        -78.0438263762943194
  @DF-RHF Final Energy:   -56.20547445453238
    Total Energy =                        -56.2054744545323786
                               Psi4 1.4a2.dev224
  @DF-RHF Final Energy:  -134.24886565053581
    Total Energy =                       -134.2488656505358051
  @DF-RHF Final Energy:   -78.04379663235090
    Total Energy =                        -78.0437966323509045
  @DF-RHF Final Energy:   -56.20544903224485
    Total Energy =                        -56.2054490322448501
                               Psi4 1.4a2.dev224
  @DF-RHF Final Energy:  -134.24941219317819
    Total Energy =                       -134.2494121931782161
  @DF-RHF Final Energy:   -78.04376527985018
    Total Energy =                        -78.0437652798501773
  @DF-RHF Final Energy:   -56.20542818182687
    Total Energy =                        -56.2054281818268748
                               Psi4 1.4a2.dev224
  @DF-RHF Final Energy:  -134.24968649024527
    Total Energy =                       -134.2496864902452671
  @DF-RHF Final Energy:   -78.04373176958387
    Total Energy =                        -78.0437317695838715
  @DF-RHF Final Energy:   -56.20541067191488
    Total Energy =                        -56.2054106719148763
                               Psi4 1.4a2.dev224
  @DF-RHF Final Energy:  -134.24979386298139
    Total Energy =                       -134.2497938629813916
  @DF-RHF Final Energy:   -78.04369564032136
    Total Energy =                        -78.0436956403213742
  @DF-RHF Final Energy:   -56.20539647669590
    Total Energy =                        -56.2053964766958956
                               Psi4 1.4a2.dev224
  @DF-RHF Final Energy:  -134.24959787356292
    Total Energy =                       -134.2495978735629194
  @DF-RHF Final Energy:   -78.04357362147245
    Total Energy =                        -78.0435736214724471
  @DF-RHF Final Energy:   -56.20536041001812
    Total Energy =                        -56.2053604100181161
                               Psi4 1.4a2.dev224
  @DF-RHF Final Energy:  -134.24922192215919
    Total Energy =                       -134.2492219221591654
  @DF-RHF Final Energy:   -78.04354609525804
    Total Energy =                        -78.0435460952580371
  //            Monomer B HF           //
  Basis Set: AUG-CC-PVDZ
    Blend: AUG-CC-PVDZ
  Basis Set: (AUG-CC-PVDZ AUX)
    Blend: AUG-CC-PVDZ-JKFIT
  @DF-RHF Final Energy:   -56.20533910524364
    Total Energy =                        -56.2053391052436382
*** Psi4 exiting successfully. Buy a developer a beer!
                               Psi4 1.4a2.dev224
  //              Dimer HF             //
  Basis Set: AUG-CC-PVDZ
    Blend: AUG-CC-PVDZ
  Basis Set: (AUG-CC-PVDZ AUX)
    Blend: AUG-CC-PVDZ-JKFIT
  @DF-RHF Final Energy:  -134.24902501295415
    Total Energy =                       -134.2490250129541494
  //            Monomer A HF           //
  Multiplicity = 1
  Basis Set: AUG-CC-PVDZ
    Blend: AUG-CC-PVDZ
  Basis Set: (AUG-CC-PVDZ AUX)
    Blend: AUG-CC-PVDZ-JKFIT
  @DF-RHF Final Energy:   -78.04352709004219
    Total Energy =                        -78.0435270900422040
  //            Monomer B HF           //
    Molecular point group: c1

    Geometry (in Angstrom), charge = 0, multiplicity = 1:

       Center              X                  Y                   Z               Mass
    ------------   -----------------  -----------------  -----------------  -----------------
      Gh(C)          -2.631092892337    -0.605179694802     0.000438636405    12.000000000000
      Gh(C)          -2.249362892337     0.671900305198    -0.000031363595    12.000000000000
      Gh(H)          -2.794792892337    -1.143259694802    -0.922241363595     1.007825032230
      Gh(H)          -2.793722892337    -1.142899694802     0.923518636405     1.007825032230
      Gh(H)          -2.086682892337     1.211280305198     0.921918636405     1.007825032230
      Gh(H)          -2.087742892337     1.210790305198    -0.922451363595     1.007825032230
         N            4.030567107663     0.013320305198    -0.000561363595    14.003074004430
         H            4.413947107663    -0.456869694802     0.808898636405     1.007825032230
         H            3.039907107663    -0.195649694802    -0.002001363595     1.007825032230
         H            4.417727107663    -0.462899694802    -0.804691363595     1.007825032230

  Charge       = 0
  Multiplicity = 1
  Basis Set: AUG-CC-PVDZ
    Blend: AUG-CC-PVDZ
  Basis Set: (AUG-CC-PVDZ AUX)
    Blend: AUG-CC-PVDZ-JKFIT

    Orbital Energies [Eh]
    ---------------------

    Doubly Occupied:

       1A    -15.552076     2A     -1.145698     3A     -0.627943
       4A     -0.627503     5A     -0.431195

  @DF-RHF Final Energy:   -56.20532761724508

   => Energetics <=

    Nuclear Repulsion Energy =             11.9648794168003842
    One-Electron Energy =                 -99.5715808851616373
    Two-Electron Energy =                  31.4013738511161726
    Total Energy =                        -56.2053276172450751

  Dipole Moment: [D]
     X:    -0.3113      Y:    -1.6314      Z:     0.0054     Total:     1.6608

    SAPT Results
  --------------------------------------------------------------------------------------------------------
    Electrostatics                 -0.13959305 [mEh]      -0.08759596 [kcal/mol]      -0.36650150 [kJ/mol]
      Elst10,r                     -0.16708167 [mEh]      -0.10484533 [kcal/mol]      -0.43867287 [kJ/mol]
      Elst12,r                      0.02748862 [mEh]       0.01724937 [kcal/mol]       0.07217137 [kJ/mol]

    Exchange                        0.00076191 [mEh]       0.00047810 [kcal/mol]       0.00200039 [kJ/mol]
      Exch10                        0.00074194 [mEh]       0.00046558 [kcal/mol]       0.00194797 [kJ/mol]
      Exch10(S^2)                   0.00074194 [mEh]       0.00046557 [kcal/mol]       0.00194796 [kJ/mol]
      Exch11(S^2)                   0.00001589 [mEh]       0.00000997 [kcal/mol]       0.00004171 [kJ/mol]
      Exch12(S^2)                   0.00000408 [mEh]       0.00000256 [kcal/mol]       0.00001071 [kJ/mol]

    Induction                      -0.00364202 [mEh]      -0.00228540 [kcal/mol]      -0.00956213 [kJ/mol]
      Ind20,r                      -0.00414769 [mEh]      -0.00260271 [kcal/mol]      -0.01088975 [kJ/mol]
      Ind22                         0.00033414 [mEh]       0.00020967 [kcal/mol]       0.00087728 [kJ/mol]
      Exch-Ind20,r                  0.00012689 [mEh]       0.00007962 [kcal/mol]       0.00033314 [kJ/mol]
      Exch-Ind22                   -0.00001022 [mEh]      -0.00000641 [kcal/mol]      -0.00002684 [kJ/mol]
      delta HF,r (2)                0.00005486 [mEh]       0.00003443 [kcal/mol]       0.00014404 [kJ/mol]

    Dispersion                     -0.05755702 [mEh]      -0.03611758 [kcal/mol]      -0.15111594 [kJ/mol]
      Disp20                       -0.05783049 [mEh]      -0.03628918 [kcal/mol]      -0.15183394 [kJ/mol]
      Disp21                        0.00523891 [mEh]       0.00328747 [kcal/mol]       0.01375477 [kJ/mol]
      Disp22 (SDQ)                  0.00389232 [mEh]       0.00244246 [kcal/mol]       0.01021927 [kJ/mol]
      Disp22 (T)                   -0.00878755 [mEh]      -0.00551427 [kcal/mol]      -0.02307171 [kJ/mol]
      Est. Disp22 (T)              -0.00897134 [mEh]      -0.00562960 [kcal/mol]      -0.02355424 [kJ/mol]
      Exch-Disp20                   0.00011358 [mEh]       0.00007127 [kcal/mol]       0.00029819 [kJ/mol]

  Total HF                         -0.17030567 [mEh]      -0.10686842 [kcal/mol]      -0.44713747 [kJ/mol]
  Total SAPT0                      -0.22802258 [mEh]      -0.14308633 [kcal/mol]      -0.59867321 [kJ/mol]
  Total SAPT2                      -0.20019008 [mEh]      -0.12562117 [kcal/mol]      -0.52559898 [kJ/mol]
  Total SAPT2+                     -0.20003019 [mEh]      -0.12552084 [kcal/mol]      -0.52517918 [kJ/mol]

  Special recipe for scaled SAPT0 (see Manual):
    Electrostatics sSAPT0          -0.16708167 [mEh]      -0.10484533 [kcal/mol]      -0.43867287 [kJ/mol]
    Exchange sSAPT0                 0.00074194 [mEh]       0.00046558 [kcal/mol]       0.00194797 [kJ/mol]
    Induction sSAPT0               -0.00396594 [mEh]      -0.00248866 [kcal/mol]      -0.01041257 [kJ/mol]
    Dispersion sSAPT0              -0.05771692 [mEh]      -0.03621791 [kcal/mol]      -0.15153574 [kJ/mol]
  Total sSAPT0                     -0.22802258 [mEh]      -0.14308633 [kcal/mol]      -0.59867321 [kJ/mol]
  --------------------------------------------------------------------------------------------------------

*** Psi4 exiting successfully. Buy a developer a beer!
