                               Psi4 1.4a2.dev224

  ==> Input File <==

--------------------------------------------------------------------------
#Generated by lconvert.py for sapt job

memory 20 GB

molecule  {
0 1
  C      -1.635460   -0.589710    0.000260
  C      -1.253730    0.687370   -0.000210
  H      -1.799160   -1.127790   -0.922420
  H      -1.798090   -1.127430    0.923340
  H      -1.091050    1.226750    0.921740
  H      -1.092110    1.226260   -0.922630
--
0 1
  N       1.750060    0.038980   -0.000350
  H       2.133430   -0.431210    0.809100
  H       0.759400   -0.169990   -0.001800
  H       2.137210   -0.437240   -0.804490
units angstrom
no_reorient
symmetry c1
}

set {
scf_type DF
basis aug-cc-pvdz
freeze_core True
guess SAD
}
energy('sapt2+')
--------------------------------------------------------------------------

  //              Dimer HF             //
    Molecular point group: c1
  Charge       = 0
  Multiplicity = 1
  Basis Set: AUG-CC-PVDZ
    Blend: AUG-CC-PVDZ
  Basis Set: (AUG-CC-PVDZ AUX)
    Blend: AUG-CC-PVDZ-JKFIT
  @DF-RHF Final Energy:  -134.24347612247556
    Total Energy =                       -134.2434761224755562
  //            Monomer A HF           //
    Molecular point group: c1
  Multiplicity = 1
  Basis Set: AUG-CC-PVDZ
    Blend: AUG-CC-PVDZ
  Basis Set: (AUG-CC-PVDZ AUX)
    Blend: AUG-CC-PVDZ-JKFIT
  @DF-RHF Final Energy:   -78.04387708367624
    Total Energy =                        -78.0438770836762359
  //            Monomer B HF           //
    Molecular point group: c1

    Geometry (in Angstrom), charge = 0, multiplicity = 1:

       Center              X                  Y                   Z               Mass
    ------------   -----------------  -----------------  -----------------  -----------------
      Gh(C)          -1.393098188155    -0.609030312137     0.000291933455    12.000000000000
      Gh(C)          -1.011368188155     0.668049687863    -0.000178066545    12.000000000000
      Gh(H)          -1.556798188155    -1.147110312137    -0.922388066545     1.007825032230
      Gh(H)          -1.555728188155    -1.146750312137     0.923371933455     1.007825032230
      Gh(H)          -0.848688188155     1.207429687863     0.921771933455     1.007825032230
      Gh(H)          -0.849748188155     1.206939687863    -0.922598066545     1.007825032230
         N            1.992421811845     0.019659687863    -0.000318066545    14.003074004430
         H            2.375791811845    -0.450530312137     0.809131933455     1.007825032230
         H            1.001761811845    -0.189310312137    -0.001768066545     1.007825032230
         H            2.379571811845    -0.456560312137    -0.804458066545     1.007825032230

  Charge       = 0
  Multiplicity = 1
  Basis Set: AUG-CC-PVDZ
    Blend: AUG-CC-PVDZ
  Basis Set: (AUG-CC-PVDZ AUX)
    Blend: AUG-CC-PVDZ-JKFIT

    Orbital Energies [Eh]
    ---------------------

    Doubly Occupied:

       1A    -15.551959     2A     -1.145675     3A     -0.627935
       4A     -0.627450     5A     -0.431103

  @DF-RHF Final Energy:   -56.20553754042160

   => Energetics <=

    Nuclear Repulsion Energy =             11.9649105762507908
    One-Electron Energy =                 -99.5726514604592268
    Two-Electron Energy =                  31.4022033437868409
    Total Energy =                        -56.2055375404216022

  Dipole Moment: [D]
     X:    -0.3142      Y:    -1.6305      Z:     0.0054     Total:     1.6605

    SAPT Results
  --------------------------------------------------------------------------------------------------------
    Electrostatics                 -8.33793085 [mEh]      -5.23213060 [kcal/mol]     -21.89123444 [kJ/mol]
      Elst10,r                     -8.95140262 [mEh]      -5.61708995 [kcal/mol]     -23.50190434 [kJ/mol]
      Elst12,r                      0.61347177 [mEh]       0.38495935 [kcal/mol]       1.61066991 [kJ/mol]

    Exchange                       18.58929104 [mEh]      11.66495624 [kcal/mol]      48.80617691 [kJ/mol]
      Exch10                       18.09754984 [mEh]      11.35638398 [kcal/mol]      47.51511056 [kJ/mol]
      Exch10(S^2)                  17.83878206 [mEh]      11.19400474 [kcal/mol]      46.83571584 [kJ/mol]
      Exch11(S^2)                   0.60418094 [mEh]       0.37912926 [kcal/mol]       1.58627684 [kJ/mol]
      Exch12(S^2)                  -0.11243974 [mEh]      -0.07055700 [kcal/mol]      -0.29521049 [kJ/mol]

    Induction                      -3.22340000 [mEh]      -2.02271404 [kcal/mol]      -8.46303553 [kJ/mol]
      Ind20,r                      -6.45723699 [mEh]      -4.05197738 [kcal/mol]     -16.95347337 [kJ/mol]
      Ind22                        -0.07427922 [mEh]      -0.04661091 [kcal/mol]      -0.19502006 [kJ/mol]
      Exch-Ind20,r                  5.08767648 [mEh]       3.19256519 [kcal/mol]      13.35769275 [kJ/mol]
      Exch-Ind22                    0.05852482 [mEh]       0.03672488 [kcal/mol]       0.15365689 [kJ/mol]
      delta HF,r (2)               -1.83808509 [mEh]      -1.15341581 [kcal/mol]      -4.82589174 [kJ/mol]

    Dispersion                     -5.46104276 [mEh]      -3.42685607 [kcal/mol]     -14.33796580 [kJ/mol]
      Disp20                       -6.81983679 [mEh]      -4.27951220 [kcal/mol]     -17.90547903 [kJ/mol]
      Disp21                        0.47124219 [mEh]       0.29570894 [kcal/mol]       1.23724621 [kJ/mol]
      Disp22 (SDQ)                  0.46335856 [mEh]       0.29076188 [kcal/mol]       1.21654772 [kJ/mol]
      Disp22 (T)                   -0.82399531 [mEh]      -0.51706486 [kcal/mol]      -2.16339938 [kJ/mol]
      Est. Disp22 (T)              -0.92258057 [mEh]      -0.57892805 [kcal/mol]      -2.42223496 [kJ/mol]
      Exch-Disp20                   1.34677385 [mEh]       0.84511335 [kcal/mol]       3.53595426 [kJ/mol]

  Total HF                          5.93850162 [mEh]       3.72646603 [kcal/mol]      15.59153386 [kJ/mol]
  Total SAPT0                       0.46543868 [mEh]       0.29206718 [kcal/mol]       1.22200909 [kJ/mol]
  Total SAPT2                       1.55489725 [mEh]       0.97571276 [kcal/mol]       4.08238218 [kJ/mol]
  Total SAPT2+                      1.56691743 [mEh]       0.98325553 [kcal/mol]       4.11394115 [kJ/mol]

  Special recipe for scaled SAPT0 (see Manual):
    Electrostatics sSAPT0          -8.95140262 [mEh]      -5.61708995 [kcal/mol]     -23.50190434 [kJ/mol]
    Exchange sSAPT0                18.09754984 [mEh]      11.35638398 [kcal/mol]      47.51511056 [kJ/mol]
    Induction sSAPT0               -2.98301425 [mEh]      -1.87186970 [kcal/mol]      -7.83190284 [kJ/mol]
    Dispersion sSAPT0              -5.41360012 [mEh]      -3.39708536 [kcal/mol]     -14.21340514 [kJ/mol]
  Total sSAPT0                      0.74953285 [mEh]       0.47033897 [kcal/mol]       1.96789823 [kJ/mol]
  --------------------------------------------------------------------------------------------------------

*** Psi4 exiting successfully. Buy a developer a beer!
