                               Psi4 1.4a2.dev224

  ==> Input File <==

--------------------------------------------------------------------------
#Generated by lconvert.py for sapt job

memory 20 GB

molecule  {
0 1
  C      -1.635460   -0.589710    0.000260
  C      -1.253730    0.687370   -0.000210
  H      -1.799160   -1.127790   -0.922420
  H      -1.798090   -1.127430    0.923340
  H      -1.091050    1.226750    0.921740
  H      -1.092110    1.226260   -0.922630
--
0 1
  N       2.189290    0.037610   -0.000410
  H       2.572660   -0.432580    0.809050
  H       1.198630   -0.171350   -0.001850
  H       2.576440   -0.438610   -0.804540
units angstrom
no_reorient
symmetry c1
}

set {
scf_type DF
basis aug-cc-pvdz
freeze_core True
guess SAD
}
energy('sapt2+')
--------------------------------------------------------------------------

  //              Dimer HF             //
    Molecular point group: c1
  Charge       = 0
  Multiplicity = 1
  Basis Set: AUG-CC-PVDZ
    Blend: AUG-CC-PVDZ
  Basis Set: (AUG-CC-PVDZ AUX)
    Blend: AUG-CC-PVDZ-JKFIT
  @DF-RHF Final Energy:  -134.24886565053581
    Total Energy =                       -134.2488656505358051
  //            Monomer A HF           //
    Molecular point group: c1
  Multiplicity = 1
  Basis Set: AUG-CC-PVDZ
    Blend: AUG-CC-PVDZ
  Basis Set: (AUG-CC-PVDZ AUX)
    Blend: AUG-CC-PVDZ-JKFIT
  @DF-RHF Final Energy:   -78.04379663235090
    Total Energy =                        -78.0437966323509045
  //            Monomer B HF           //
    Molecular point group: c1

    Geometry (in Angstrom), charge = 0, multiplicity = 1:

       Center              X                  Y                   Z               Mass
    ------------   -----------------  -----------------  -----------------  -----------------
      Gh(C)          -1.559075288471    -0.608512837504     0.000313935353    12.000000000000
      Gh(C)          -1.177345288471     0.668567162496    -0.000156064647    12.000000000000
      Gh(H)          -1.722775288471    -1.146592837504    -0.922366064647     1.007825032230
      Gh(H)          -1.721705288471    -1.146232837504     0.923393935353     1.007825032230
      Gh(H)          -1.014665288471     1.207947162496     0.921793935353     1.007825032230
      Gh(H)          -1.015725288471     1.207457162496    -0.922576064647     1.007825032230
         N            2.265674711529     0.018807162496    -0.000356064647    14.003074004430
         H            2.649044711529    -0.451382837504     0.809103935353     1.007825032230
         H            1.275014711529    -0.190152837504    -0.001796064647     1.007825032230
         H            2.652824711529    -0.457412837504    -0.804486064647     1.007825032230

  Charge       = 0
  Multiplicity = 1
  Basis Set: AUG-CC-PVDZ
    Blend: AUG-CC-PVDZ
  Basis Set: (AUG-CC-PVDZ AUX)
    Blend: AUG-CC-PVDZ-JKFIT

    Orbital Energies [Eh]
    ---------------------

    Doubly Occupied:

       1A    -15.551978     2A     -1.145695     3A     -0.627950
       4A     -0.627471     5A     -0.431141

  @DF-RHF Final Energy:   -56.20544903224485

   => Energetics <=

    Nuclear Repulsion Energy =             11.9649172325010511
    One-Electron Energy =                 -99.5722634154756605
    Two-Electron Energy =                  31.4018971507297593
    Total Energy =                        -56.2054490322448501

  Dipole Moment: [D]
     X:    -0.3133      Y:    -1.6313      Z:     0.0054     Total:     1.6611

    SAPT Results
  --------------------------------------------------------------------------------------------------------
    Electrostatics                 -3.21178230 [mEh]      -2.01542382 [kcal/mol]      -8.43253327 [kJ/mol]
      Elst10,r                     -3.56632092 [mEh]      -2.23790016 [kcal/mol]      -9.36337429 [kJ/mol]
      Elst12,r                      0.35453862 [mEh]       0.22247634 [kcal/mol]       0.93084102 [kJ/mol]

    Exchange                        5.07281640 [mEh]       3.18324035 [kcal/mol]      13.31867763 [kJ/mol]
      Exch10                        4.90871484 [mEh]       3.08026507 [kcal/mol]      12.88782905 [kJ/mol]
      Exch10(S^2)                   4.88639035 [mEh]       3.06625624 [kcal/mol]      12.82921610 [kJ/mol]
      Exch11(S^2)                   0.17890223 [mEh]       0.11226284 [kcal/mol]       0.46970774 [kJ/mol]
      Exch12(S^2)                  -0.01480067 [mEh]      -0.00928756 [kcal/mol]      -0.03885916 [kJ/mol]

    Induction                      -0.96134347 [mEh]      -0.60325213 [kcal/mol]      -2.52400693 [kJ/mol]
      Ind20,r                      -1.64775739 [mEh]      -1.03398337 [kcal/mol]      -4.32618643 [kJ/mol]
      Ind22                         0.00376856 [mEh]       0.00236481 [kcal/mol]       0.00989435 [kJ/mol]
      Exch-Ind20,r                  1.19460520 [mEh]       0.74962608 [kcal/mol]       3.13643551 [kJ/mol]
      Exch-Ind22                   -0.00273216 [mEh]      -0.00171446 [kcal/mol]      -0.00717329 [kJ/mol]
      delta HF,r (2)               -0.50922767 [mEh]      -0.31954519 [kcal/mol]      -1.33697707 [kJ/mol]

    Dispersion                     -2.64085013 [mEh]      -1.65715847 [kcal/mol]      -6.93355106 [kJ/mol]
      Disp20                       -3.00774799 [mEh]      -1.88739036 [kcal/mol]      -7.89684125 [kJ/mol]
      Disp21                        0.15624401 [mEh]       0.09804460 [kcal/mol]       0.41021860 [kJ/mol]
      Disp22 (SDQ)                  0.21570238 [mEh]       0.13535529 [kcal/mol]       0.56632652 [kJ/mol]
      Disp22 (T)                   -0.38522127 [mEh]      -0.24173000 [kcal/mol]      -1.01139831 [kJ/mol]
      Est. Disp22 (T)              -0.43194630 [mEh]      -0.27105039 [kcal/mol]      -1.13407485 [kJ/mol]
      Exch-Disp20                   0.42689776 [mEh]       0.26788239 [kcal/mol]       1.12081992 [kJ/mol]

  Total HF                          0.38001406 [mEh]       0.23846242 [kcal/mol]       0.99772678 [kJ/mol]
  Total SAPT0                      -2.20083616 [mEh]      -1.38104554 [kcal/mol]      -5.77829455 [kJ/mol]
  Total SAPT2                      -1.68115959 [mEh]      -1.05494357 [kcal/mol]      -4.41388389 [kJ/mol]
  Total SAPT2+                     -1.74115949 [mEh]      -1.09259408 [kcal/mol]      -4.57141362 [kJ/mol]

  Special recipe for scaled SAPT0 (see Manual):
    Electrostatics sSAPT0          -3.56632092 [mEh]      -2.23790016 [kcal/mol]      -9.36337429 [kJ/mol]
    Exchange sSAPT0                 4.90871484 [mEh]       3.08026507 [kcal/mol]      12.88782905 [kJ/mol]
    Induction sSAPT0               -0.94593154 [mEh]      -0.59358100 [kcal/mol]      -2.48354291 [kJ/mol]
    Dispersion sSAPT0              -2.57497234 [mEh]      -1.61581954 [kcal/mol]      -6.76058894 [kJ/mol]
  Total sSAPT0                     -2.17850995 [mEh]      -1.36703563 [kcal/mol]      -5.71967709 [kJ/mol]
  --------------------------------------------------------------------------------------------------------

*** Psi4 exiting successfully. Buy a developer a beer!
