                               Psi4 1.4a2.dev224

  ==> Input File <==

--------------------------------------------------------------------------
#Generated by lconvert.py for sapt job

memory 20 GB

molecule  {
0 1
  C      -1.635460   -0.589710    0.000260
  C      -1.253730    0.687370   -0.000210
  H      -1.799160   -1.127790   -0.922420
  H      -1.798090   -1.127430    0.923340
  H      -1.091050    1.226750    0.921740
  H      -1.092110    1.226260   -0.922630
--
0 1
  N       2.477090    0.036720   -0.000440
  H       2.860460   -0.433470    0.809020
  H       1.486430   -0.172250   -0.001880
  H       2.864240   -0.439500   -0.804570
units angstrom
no_reorient
symmetry c1
}

set {
scf_type DF
basis aug-cc-pvdz
freeze_core True
guess SAD
}
energy('sapt2+')
--------------------------------------------------------------------------

  //              Dimer HF             //
    Molecular point group: c1
  Charge       = 0
  Multiplicity = 1
  Basis Set: AUG-CC-PVDZ
    Blend: AUG-CC-PVDZ
  Basis Set: (AUG-CC-PVDZ AUX)
    Blend: AUG-CC-PVDZ-JKFIT
  @DF-RHF Final Energy:  -134.24968649024527
    Total Energy =                       -134.2496864902452671
  //            Monomer A HF           //
    Molecular point group: c1
  Multiplicity = 1
  Basis Set: AUG-CC-PVDZ
    Blend: AUG-CC-PVDZ
  Basis Set: (AUG-CC-PVDZ AUX)
    Blend: AUG-CC-PVDZ-JKFIT
  @DF-RHF Final Energy:   -78.04373176958387
    Total Energy =                        -78.0437317695838715
  //            Monomer B HF           //
    Molecular point group: c1

    Geometry (in Angstrom), charge = 0, multiplicity = 1:

       Center              X                  Y                   Z               Mass
    ------------   -----------------  -----------------  -----------------  -----------------
      Gh(C)          -1.667829721162    -0.608176298871     0.000325271812    12.000000000000
      Gh(C)          -1.286099721162     0.668903701129    -0.000144728188    12.000000000000
      Gh(H)          -1.831529721162    -1.146256298871    -0.922354728188     1.007825032230
      Gh(H)          -1.830459721162    -1.145896298871     0.923405271812     1.007825032230
      Gh(H)          -1.123419721162     1.208283701129     0.921805271812     1.007825032230
      Gh(H)          -1.124479721162     1.207793701129    -0.922564728188     1.007825032230
         N            2.444720278838     0.018253701129    -0.000374728188    14.003074004430
         H            2.828090278838    -0.451936298871     0.809085271812     1.007825032230
         H            1.454060278838    -0.190716298871    -0.001814728188     1.007825032230
         H            2.831870278838    -0.457966298871    -0.804504728188     1.007825032230

  Charge       = 0
  Multiplicity = 1
  Basis Set: AUG-CC-PVDZ
    Blend: AUG-CC-PVDZ
  Basis Set: (AUG-CC-PVDZ AUX)
    Blend: AUG-CC-PVDZ-JKFIT

    Orbital Energies [Eh]
    ---------------------

    Doubly Occupied:

       1A    -15.551998     2A     -1.145702     3A     -0.627949
       4A     -0.627485     5A     -0.431161

  @DF-RHF Final Energy:   -56.20541067191488

   => Energetics <=

    Nuclear Repulsion Energy =             11.9649104359613165
    One-Electron Energy =                 -99.5720506384870276
    Two-Electron Energy =                  31.4017295306108366
    Total Energy =                        -56.2054106719148763

  Dipole Moment: [D]
     X:    -0.3127      Y:    -1.6317      Z:     0.0054     Total:     1.6614

    SAPT Results
  --------------------------------------------------------------------------------------------------------
    Electrostatics                 -1.89636863 [mEh]      -1.18998928 [kcal/mol]      -4.97891516 [kJ/mol]
      Elst10,r                     -2.15027331 [mEh]      -1.34931688 [kcal/mol]      -5.64554181 [kJ/mol]
      Elst12,r                      0.25390468 [mEh]       0.15932759 [kcal/mol]       0.66662665 [kJ/mol]

    Exchange                        2.13460097 [mEh]       1.33948233 [kcal/mol]       5.60439408 [kJ/mol]
      Exch10                        2.06022841 [mEh]       1.29281285 [kcal/mol]       5.40912895 [kJ/mol]
      Exch10(S^2)                   2.05591328 [mEh]       1.29010506 [kcal/mol]       5.39779957 [kJ/mol]
      Exch11(S^2)                   0.07623536 [mEh]       0.04783841 [kcal/mol]       0.20015590 [kJ/mol]
      Exch12(S^2)                  -0.00186280 [mEh]      -0.00116892 [kcal/mol]      -0.00489078 [kJ/mol]

    Induction                      -0.45122194 [mEh]      -0.28314604 [kcal/mol]      -1.18468303 [kJ/mol]
      Ind20,r                      -0.70362664 [mEh]      -0.44153238 [kcal/mol]      -1.84737149 [kJ/mol]
      Ind22                         0.00807585 [mEh]       0.00506767 [kcal/mol]       0.02120314 [kJ/mol]
      Exch-Ind20,r                  0.46124659 [mEh]       0.28943660 [kcal/mol]       1.21100275 [kJ/mol]
      Exch-Ind22                   -0.00529394 [mEh]      -0.00332200 [kcal/mol]      -0.01389924 [kJ/mol]
      delta HF,r (2)               -0.21162379 [mEh]      -0.13279594 [kcal/mol]      -0.55561819 [kJ/mol]

    Dispersion                     -1.66304629 [mEh]      -1.04357730 [kcal/mol]      -4.36632742 [kJ/mol]
      Disp20                       -1.80726206 [mEh]      -1.13407406 [kcal/mol]      -4.74496587 [kJ/mol]
      Disp21                        0.08486242 [mEh]       0.05325197 [kcal/mol]       0.22280624 [kJ/mol]
      Disp22 (SDQ)                  0.13112300 [mEh]       0.08228093 [kcal/mol]       0.34426340 [kJ/mol]
      Disp22 (T)                   -0.23953381 [mEh]      -0.15030973 [kcal/mol]      -0.62889593 [kJ/mol]
      Est. Disp22 (T)              -0.26636666 [mEh]      -0.16714760 [kcal/mol]      -0.69934557 [kJ/mol]
      Exch-Disp20                   0.19459701 [mEh]       0.12211147 [kcal/mol]       0.51091438 [kJ/mol]

  Total HF                         -0.54404875 [mEh]      -0.34139574 [kcal/mol]      -1.42839979 [kJ/mol]
  Total SAPT0                      -2.15671379 [mEh]      -1.35335834 [kcal/mol]      -5.66245128 [kJ/mol]
  Total SAPT2                      -1.82565464 [mEh]      -1.14561558 [kcal/mol]      -4.79325560 [kJ/mol]
  Total SAPT2+                     -1.87603588 [mEh]      -1.17723029 [kcal/mol]      -4.92553153 [kJ/mol]

  Special recipe for scaled SAPT0 (see Manual):
    Electrostatics sSAPT0          -2.15027331 [mEh]      -1.34931688 [kcal/mol]      -5.64554181 [kJ/mol]
    Exchange sSAPT0                 2.06022841 [mEh]       1.29281285 [kcal/mol]       5.40912895 [kJ/mol]
    Induction sSAPT0               -0.45109343 [mEh]      -0.28306540 [kcal/mol]      -1.18434564 [kJ/mol]
    Dispersion sSAPT0              -1.61143716 [mEh]      -1.01119208 [kcal/mol]      -4.23082768 [kJ/mol]
  Total sSAPT0                     -2.15257549 [mEh]      -1.35076151 [kcal/mol]      -5.65158617 [kJ/mol]
  --------------------------------------------------------------------------------------------------------

*** Psi4 exiting successfully. Buy a developer a beer!
