                               Psi4 1.4a2.dev224

  ==> Input File <==

--------------------------------------------------------------------------
#Generated by lconvert.py for sapt job

memory 20 GB

molecule  {
0 1
  C      -1.635460   -0.589710    0.000260
  C      -1.253730    0.687370   -0.000210
  H      -1.799160   -1.127790   -0.922420
  H      -1.798090   -1.127430    0.923340
  H      -1.091050    1.226750    0.921740
  H      -1.092110    1.226260   -0.922630
--
0 1
  N       2.044040    0.038060   -0.000390
  H       2.427420   -0.432130    0.809070
  H       1.053380   -0.170900   -0.001830
  H       2.431190   -0.438150   -0.804520
units angstrom
no_reorient
symmetry c1
}

set {
scf_type DF
basis aug-cc-pvdz
freeze_core True
guess SAD
}
energy('sapt2+')
--------------------------------------------------------------------------

  //              Dimer HF             //
    Molecular point group: c1
  Charge       = 0
  Multiplicity = 1
  Basis Set: AUG-CC-PVDZ
    Blend: AUG-CC-PVDZ
  Basis Set: (AUG-CC-PVDZ AUX)
    Blend: AUG-CC-PVDZ-JKFIT
  @DF-RHF Final Energy:  -134.24788463216862
    Total Energy =                       -134.2478846321686206
  //            Monomer A HF           //
    Molecular point group: c1
  Multiplicity = 1
  Basis Set: AUG-CC-PVDZ
    Blend: AUG-CC-PVDZ
  Basis Set: (AUG-CC-PVDZ AUX)
    Blend: AUG-CC-PVDZ-JKFIT
  @DF-RHF Final Energy:   -78.04382637629432
    Total Energy =                        -78.0438263762943194
  //            Monomer B HF           //
    Molecular point group: c1

    Geometry (in Angstrom), charge = 0, multiplicity = 1:

       Center              X                  Y                   Z               Mass
    ------------   -----------------  -----------------  -----------------  -----------------
      Gh(C)          -1.504188155131    -0.608683108066     0.000306377714    12.000000000000
      Gh(C)          -1.122458155131     0.668396891934    -0.000163622286    12.000000000000
      Gh(H)          -1.667888155131    -1.146763108066    -0.922373622286     1.007825032230
      Gh(H)          -1.666818155131    -1.146403108066     0.923386377714     1.007825032230
      Gh(H)          -0.959778155131     1.207776891934     0.921786377714     1.007825032230
      Gh(H)          -0.960838155131     1.207286891934    -0.922583622286     1.007825032230
         N            2.175311844869     0.019086891934    -0.000343622286    14.003074004430
         H            2.558691844869    -0.451103108066     0.809116377714     1.007825032230
         H            1.184651844869    -0.189873108066    -0.001783622286     1.007825032230
         H            2.562461844869    -0.457123108066    -0.804473622286     1.007825032230

  Charge       = 0
  Multiplicity = 1
  Basis Set: AUG-CC-PVDZ
    Blend: AUG-CC-PVDZ
  Basis Set: (AUG-CC-PVDZ AUX)
    Blend: AUG-CC-PVDZ-JKFIT

    Orbital Energies [Eh]
    ---------------------

    Doubly Occupied:

       1A    -15.551969     2A     -1.145689     3A     -0.627948
       4A     -0.627463     5A     -0.431128

  @DF-RHF Final Energy:   -56.20547445453238

   => Energetics <=

    Nuclear Repulsion Energy =             11.9649191808561834
    One-Electron Energy =                 -99.5723916677491303
    Two-Electron Energy =                  31.4019980323605665
    Total Energy =                        -56.2054744545323786

  Dipole Moment: [D]
     X:    -0.3136      Y:    -1.6311      Z:     0.0054     Total:     1.6610

    SAPT Results
  --------------------------------------------------------------------------------------------------------
    Electrostatics                 -4.31913448 [mEh]      -2.71029781 [kcal/mol]     -11.33988603 [kJ/mol]
      Elst10,r                     -4.74259341 [mEh]      -2.97602230 [kcal/mol]     -12.45167729 [kJ/mol]
      Elst12,r                      0.42345893 [mEh]       0.26572449 [kcal/mol]       1.11179127 [kJ/mol]

    Exchange                        7.82323294 [mEh]       4.90915279 [kcal/mol]      20.53989526 [kJ/mol]
      Exch10                        7.58270063 [mEh]       4.75821648 [kcal/mol]      19.90837777 [kJ/mol]
      Exch10(S^2)                   7.53203803 [mEh]       4.72642522 [kcal/mol]      19.77536313 [kJ/mol]
      Exch11(S^2)                   0.27117885 [mEh]       0.17016730 [kcal/mol]       0.71197996 [kJ/mol]
      Exch12(S^2)                  -0.03064654 [mEh]      -0.01923099 [kcal/mol]      -0.08046247 [kJ/mol]

    Induction                      -1.42540796 [mEh]      -0.89445700 [kcal/mol]      -3.74240808 [kJ/mol]
      Ind20,r                      -2.56939434 [mEh]      -1.61231929 [kcal/mol]      -6.74594391 [kJ/mol]
      Ind22                        -0.00605617 [mEh]      -0.00380030 [kcal/mol]      -0.01590046 [kJ/mol]
      Exch-Ind20,r                  1.93325924 [mEh]       1.21313849 [kcal/mol]       5.07577144 [kJ/mol]
      Exch-Ind22                    0.00455677 [mEh]       0.00285942 [kcal/mol]       0.01196380 [kJ/mol]
      delta HF,r (2)               -0.78777346 [mEh]      -0.49433531 [kcal/mol]      -2.06829894 [kJ/mol]

    Dispersion                     -3.34767728 [mEh]      -2.10069921 [kcal/mol]      -8.78932548 [kJ/mol]
      Disp20                       -3.92214077 [mEh]      -2.46118049 [kcal/mol]     -10.29757917 [kJ/mol]
      Disp21                        0.22090884 [mEh]       0.13862239 [kcal/mol]       0.57999608 [kJ/mol]
      Disp22 (SDQ)                  0.27801601 [mEh]       0.17445768 [kcal/mol]       0.72993093 [kJ/mol]
      Disp22 (T)                   -0.49240403 [mEh]      -0.30898819 [kcal/mol]      -1.29280659 [kJ/mol]
      Est. Disp22 (T)              -0.55345930 [mEh]      -0.34730095 [kcal/mol]      -1.45310720 [kJ/mol]
      Exch-Disp20                   0.62899794 [mEh]       0.39470217 [kcal/mol]       1.65143387 [kJ/mol]

  Total HF                          1.41619866 [mEh]       0.88867807 [kcal/mol]       3.71822906 [kJ/mol]
  Total SAPT0                      -1.87694417 [mEh]      -1.17780025 [kcal/mol]      -4.92791623 [kJ/mol]
  Total SAPT2                      -1.21445232 [mEh]      -0.76208034 [kcal/mol]      -3.18854414 [kJ/mol]
  Total SAPT2+                     -1.26898678 [mEh]      -0.79630122 [kcal/mol]      -3.33172432 [kJ/mol]

  Special recipe for scaled SAPT0 (see Manual):
    Electrostatics sSAPT0          -4.74259341 [mEh]      -2.97602230 [kcal/mol]     -12.45167729 [kJ/mol]
    Exchange sSAPT0                 7.58270063 [mEh]       4.75821648 [kcal/mol]      19.90837777 [kJ/mol]
    Induction sSAPT0               -1.38463464 [mEh]      -0.86887136 [kcal/mol]      -3.63535775 [kJ/mol]
    Dispersion sSAPT0              -3.28036481 [mEh]      -2.05846000 [kcal/mol]      -8.61259662 [kJ/mol]
  Total sSAPT0                     -1.82489223 [mEh]      -1.14513717 [kcal/mol]      -4.79125390 [kJ/mol]
  --------------------------------------------------------------------------------------------------------

*** Psi4 exiting successfully. Buy a developer a beer!
