                               Psi4 1.4a2.dev224

  ==> Input File <==

--------------------------------------------------------------------------
#Generated by lconvert.py for sapt job

memory 20 GB

molecule  {
0 1
  C      -1.259210    0.661370   -0.001290
  C      -1.813830   -0.550850    0.000430
  H      -1.873310    1.551250   -0.002520
  H      -0.184860    0.787060   -0.002030
  H      -1.204800   -1.444290    0.003160
  H      -2.886280   -0.685600    0.000960
--
0 1
  N       2.505780   -0.015870   -0.002870
  H       3.396590    0.463390   -0.032580
  H       2.527640   -0.582000    0.835720
  H       2.513560   -0.666160   -0.778340
units angstrom
no_reorient
symmetry c1
}

set {
scf_type DF
basis aug-cc-pvdz
freeze_core True
guess SAD
}
energy('sapt2+')
--------------------------------------------------------------------------

  //              Dimer HF             //
    Molecular point group: c1
  Charge       = 0
  Multiplicity = 1
  Basis Set: AUG-CC-PVDZ
    Blend: AUG-CC-PVDZ
  Basis Set: (AUG-CC-PVDZ AUX)
    Blend: AUG-CC-PVDZ-JKFIT
  @DF-RHF Final Energy:  -134.25001359339439
    Total Energy =                       -134.2500135933943852
  //            Monomer A HF           //
    Molecular point group: c1
  Multiplicity = 1
  Basis Set: AUG-CC-PVDZ
    Blend: AUG-CC-PVDZ
  Basis Set: (AUG-CC-PVDZ AUX)
    Blend: AUG-CC-PVDZ-JKFIT
  @DF-RHF Final Energy:   -78.04358040156802
    Total Energy =                        -78.0435804015680219
  //            Monomer B HF           //
    Molecular point group: c1

    Geometry (in Angstrom), charge = 0, multiplicity = 1:

       Center              X                  Y                   Z               Mass
    ------------   -----------------  -----------------  -----------------  -----------------
      Gh(C)          -1.270719441461     0.649759342431    -0.000714115292    12.000000000000
      Gh(C)          -1.825339441461    -0.562460657569     0.001005884708    12.000000000000
      Gh(H)          -1.884819441461     1.539639342431    -0.001944115292     1.007825032230
      Gh(H)          -0.196369441461     0.775449342431    -0.001454115292     1.007825032230
      Gh(H)          -1.216309441461    -1.455900657569     0.003735884708     1.007825032230
      Gh(H)          -2.897789441461    -0.697210657569     0.001535884708     1.007825032230
         N            2.494270558539    -0.027480657569    -0.002294115292    14.003074004430
         H            3.385080558539     0.451779342431    -0.032004115292     1.007825032230
         H            2.516130558539    -0.593610657569     0.836295884708     1.007825032230
         H            2.502050558539    -0.677770657569    -0.777764115292     1.007825032230

  Charge       = 0
  Multiplicity = 1
  Basis Set: AUG-CC-PVDZ
    Blend: AUG-CC-PVDZ
  Basis Set: (AUG-CC-PVDZ AUX)
    Blend: AUG-CC-PVDZ-JKFIT

    Orbital Energies [Eh]
    ---------------------

    Doubly Occupied:

       1A    -15.552098     2A     -1.145772     3A     -0.627909
       4A     -0.627100     5A     -0.431335

  @DF-RHF Final Energy:   -56.20560588414894

   => Energetics <=

    Nuclear Repulsion Energy =             11.9635152584094051
    One-Electron Energy =                 -99.5698148184042964
    Two-Electron Energy =                  31.4006936758459503
    Total Energy =                        -56.2056058841489445

  Dipole Moment: [D]
     X:     1.2940      Y:    -1.0383      Z:     0.0452     Total:     1.6596

    SAPT Results
  --------------------------------------------------------------------------------------------------------
    Electrostatics                 -2.02414990 [mEh]      -1.27017324 [kcal/mol]      -5.31440482 [kJ/mol]
      Elst10,r                     -2.03792114 [mEh]      -1.27881482 [kcal/mol]      -5.35056121 [kJ/mol]
      Elst12,r                      0.01377124 [mEh]       0.00864159 [kcal/mol]       0.03615639 [kJ/mol]

    Exchange                        2.06974416 [mEh]       1.29878407 [kcal/mol]       5.43411253 [kJ/mol]
      Exch10                        1.77553654 [mEh]       1.11416600 [kcal/mol]       4.66167054 [kJ/mol]
      Exch10(S^2)                   1.77254929 [mEh]       1.11229147 [kcal/mol]       4.65382753 [kJ/mol]
      Exch11(S^2)                  -0.00589938 [mEh]      -0.00370192 [kcal/mol]      -0.01548882 [kJ/mol]
      Exch12(S^2)                   0.30010700 [mEh]       0.18831999 [kcal/mol]       0.78793082 [kJ/mol]

    Induction                      -0.59798825 [mEh]      -0.37524329 [kcal/mol]      -1.57001793 [kJ/mol]
      Ind20,r                      -0.62433966 [mEh]      -0.39177905 [kcal/mol]      -1.63920354 [kJ/mol]
      Ind22                        -0.05301649 [mEh]      -0.03326835 [kcal/mol]      -0.13919477 [kJ/mol]
      Exch-Ind20,r                  0.23495330 [mEh]       0.14743542 [kcal/mol]       0.61686980 [kJ/mol]
      Exch-Ind22                    0.01995132 [mEh]       0.01251964 [kcal/mol]       0.05238218 [kJ/mol]
      delta HF,r (2)               -0.17553672 [mEh]      -0.11015095 [kcal/mol]      -0.46087159 [kJ/mol]

    Dispersion                     -1.53254684 [mEh]      -0.96168766 [kcal/mol]      -4.02370117 [kJ/mol]
      Disp20                       -1.50519915 [mEh]      -0.94452673 [kcal/mol]      -3.95189983 [kJ/mol]
      Disp21                        0.00810519 [mEh]       0.00508608 [kcal/mol]       0.02128017 [kJ/mol]
      Disp22 (SDQ)                  0.02399929 [mEh]       0.01505978 [kcal/mol]       0.06301013 [kJ/mol]
      Disp22 (T)                   -0.19192385 [mEh]      -0.12043403 [kcal/mol]      -0.50389599 [kJ/mol]
      Est. Disp22 (T)              -0.21713078 [mEh]      -0.13625162 [kcal/mol]      -0.57007678 [kJ/mol]
      Exch-Disp20                   0.15767862 [mEh]       0.09894483 [kcal/mol]       0.41398515 [kJ/mol]

  Total HF                         -0.82730768 [mEh]      -0.51914341 [kcal/mol]      -2.17209601 [kJ/mol]
  Total SAPT0                      -2.17482821 [mEh]      -1.36472531 [kcal/mol]      -5.71001069 [kJ/mol]
  Total SAPT2                      -1.89991452 [mEh]      -1.19221436 [kcal/mol]      -4.98822489 [kJ/mol]
  Total SAPT2+                     -2.08494082 [mEh]      -1.30832012 [kcal/mol]      -5.47401138 [kJ/mol]

  Special recipe for scaled SAPT0 (see Manual):
    Electrostatics sSAPT0          -2.03792114 [mEh]      -1.27881482 [kcal/mol]      -5.35056121 [kJ/mol]
    Exchange sSAPT0                 1.77553654 [mEh]       1.11416600 [kcal/mol]       4.66167054 [kJ/mol]
    Induction sSAPT0               -0.56373319 [mEh]      -0.35374791 [kcal/mol]      -1.48008128 [kJ/mol]
    Dispersion sSAPT0              -1.34672199 [mEh]      -0.84508081 [kcal/mol]      -3.53581811 [kJ/mol]
  Total sSAPT0                     -2.17283978 [mEh]      -1.36347755 [kcal/mol]      -5.70479006 [kJ/mol]
  --------------------------------------------------------------------------------------------------------

*** Psi4 exiting successfully. Buy a developer a beer!
