                               Psi4 1.4a2.dev224

  ==> Input File <==

--------------------------------------------------------------------------
#Generated by lconvert.py for sapt job

memory 20 GB

molecule  {
0 1
  C      -1.259210    0.661370   -0.001290
  C      -1.813830   -0.550850    0.000430
  H      -1.873310    1.551250   -0.002520
  H      -0.184860    0.787060   -0.002030
  H      -1.204800   -1.444290    0.003160
  H      -2.886280   -0.685600    0.000960
--
0 1
  N       2.227030   -0.010990   -0.002700
  H       3.117840    0.468260   -0.032410
  H       2.248880   -0.577130    0.835890
  H       2.234800   -0.661290   -0.778170
units angstrom
no_reorient
symmetry c1
}

set {
scf_type DF
basis aug-cc-pvdz
freeze_core True
guess SAD
}
energy('sapt2+')
--------------------------------------------------------------------------

  //              Dimer HF             //
    Molecular point group: c1
  Charge       = 0
  Multiplicity = 1
  Basis Set: AUG-CC-PVDZ
    Blend: AUG-CC-PVDZ
  Basis Set: (AUG-CC-PVDZ AUX)
    Blend: AUG-CC-PVDZ-JKFIT
  @DF-RHF Final Energy:  -134.24954084963568
    Total Energy =                       -134.2495408496356788
  //            Monomer A HF           //
    Molecular point group: c1
  Multiplicity = 1
  Basis Set: AUG-CC-PVDZ
    Blend: AUG-CC-PVDZ
  Basis Set: (AUG-CC-PVDZ AUX)
    Blend: AUG-CC-PVDZ-JKFIT
  @DF-RHF Final Energy:   -78.04360326183344
    Total Energy =                        -78.0436032618334394
  //            Monomer B HF           //
    Molecular point group: c1

    Geometry (in Angstrom), charge = 0, multiplicity = 1:

       Center              X                  Y                   Z               Mass
    ------------   -----------------  -----------------  -----------------  -----------------
      Gh(C)          -1.165384393306     0.647915949408    -0.000778355228    12.000000000000
      Gh(C)          -1.720004393306    -0.564304050592     0.000941644772    12.000000000000
      Gh(H)          -1.779484393306     1.537795949408    -0.002008355228     1.007825032230
      Gh(H)          -0.091034393306     0.773605949408    -0.001518355228     1.007825032230
      Gh(H)          -1.110974393306    -1.457744050592     0.003671644772     1.007825032230
      Gh(H)          -2.792454393306    -0.699054050592     0.001471644772     1.007825032230
         N            2.320855606694    -0.024444050592    -0.002188355228    14.003074004430
         H            3.211665606694     0.454805949408    -0.031898355228     1.007825032230
         H            2.342705606694    -0.590584050592     0.836401644772     1.007825032230
         H            2.328625606694    -0.674744050592    -0.777658355228     1.007825032230

  Charge       = 0
  Multiplicity = 1
  Basis Set: AUG-CC-PVDZ
    Blend: AUG-CC-PVDZ
  Basis Set: (AUG-CC-PVDZ AUX)
    Blend: AUG-CC-PVDZ-JKFIT

    Orbital Energies [Eh]
    ---------------------

    Doubly Occupied:

       1A    -15.552090     2A     -1.145788     3A     -0.627879
       4A     -0.627079     5A     -0.431298

  @DF-RHF Final Energy:   -56.20571239519873

   => Energetics <=

    Nuclear Repulsion Energy =             11.9634877760313216
    One-Electron Energy =                 -99.5701316056539696
    Two-Electron Energy =                  31.4009314344239101
    Total Energy =                        -56.2057123951987307

  Dipole Moment: [D]
     X:     1.2929      Y:    -1.0375      Z:     0.0452     Total:     1.6583

    SAPT Results
  --------------------------------------------------------------------------------------------------------
    Electrostatics                 -3.52008312 [mEh]      -2.20888550 [kcal/mol]      -9.24197695 [kJ/mol]
      Elst10,r                     -3.44288455 [mEh]      -2.16044267 [kcal/mol]      -9.03929215 [kJ/mol]
      Elst12,r                     -0.07719856 [mEh]      -0.04844283 [kcal/mol]      -0.20268480 [kJ/mol]

    Exchange                        4.91304675 [mEh]       3.08298338 [kcal/mol]      12.89920247 [kJ/mol]
      Exch10                        4.31693096 [mEh]       2.70891508 [kcal/mol]      11.33410068 [kJ/mol]
      Exch10(S^2)                   4.30052540 [mEh]       2.69862043 [kcal/mol]      11.29102787 [kJ/mol]
      Exch11(S^2)                   0.00488325 [mEh]       0.00306428 [kcal/mol]       0.01282096 [kJ/mol]
      Exch12(S^2)                   0.59123255 [mEh]       0.37100402 [kcal/mol]       1.55228083 [kJ/mol]

    Induction                      -1.16580235 [mEh]      -0.73155202 [kcal/mol]      -3.06081366 [kJ/mol]
      Ind20,r                      -1.30821382 [mEh]      -0.82091657 [kcal/mol]      -3.43471491 [kJ/mol]
      Ind22                        -0.13285584 [mEh]      -0.08336830 [kcal/mol]      -0.34881295 [kJ/mol]
      Exch-Ind20,r                  0.65277343 [mEh]       0.40962151 [kcal/mol]       1.71385640 [kJ/mol]
      Exch-Ind22                    0.06629250 [mEh]       0.04159917 [kcal/mol]       0.17405092 [kJ/mol]
      delta HF,r (2)               -0.44379862 [mEh]      -0.27848784 [kcal/mol]      -1.16519312 [kJ/mol]

    Dispersion                     -2.42021769 [mEh]      -1.51870953 [kcal/mol]      -6.35428067 [kJ/mol]
      Disp20                       -2.48309738 [mEh]      -1.55816713 [kcal/mol]      -6.51937128 [kJ/mol]
      Disp21                        0.02726243 [mEh]       0.01710743 [kcal/mol]       0.07157750 [kJ/mol]
      Disp22 (SDQ)                  0.04162049 [mEh]       0.02611725 [kcal/mol]       0.10927457 [kJ/mol]
      Disp22 (T)                   -0.31479704 [mEh]      -0.19753812 [kcal/mol]      -0.82649950 [kJ/mol]
      Est. Disp22 (T)              -0.35298903 [mEh]      -0.22150396 [kcal/mol]      -0.92677256 [kJ/mol]
      Exch-Disp20                   0.34698580 [mEh]       0.21773688 [kcal/mol]       0.91101109 [kJ/mol]

  Total HF                         -0.22519260 [mEh]      -0.14131049 [kcal/mol]      -0.59124310 [kJ/mol]
  Total SAPT0                      -2.36130419 [mEh]      -1.48174075 [kcal/mol]      -6.19960329 [kJ/mol]
  Total SAPT2                      -1.90895030 [mEh]      -1.19788440 [kcal/mol]      -5.01194832 [kJ/mol]
  Total SAPT2+                     -2.19305641 [mEh]      -1.37616367 [kcal/mol]      -5.75786880 [kJ/mol]

  Special recipe for scaled SAPT0 (see Manual):
    Electrostatics sSAPT0          -3.44288455 [mEh]      -2.16044267 [kcal/mol]      -9.03929215 [kJ/mol]
    Exchange sSAPT0                 4.31693096 [mEh]       2.70891508 [kcal/mol]      11.33410068 [kJ/mol]
    Induction sSAPT0               -1.09173991 [mEh]      -0.68507714 [kcal/mol]      -2.86636275 [kJ/mol]
    Dispersion sSAPT0              -2.13212539 [mEh]      -1.33792888 [kcal/mol]      -5.59789444 [kJ/mol]
  Total sSAPT0                     -2.34981889 [mEh]      -1.47453362 [kcal/mol]      -6.16944865 [kJ/mol]
  --------------------------------------------------------------------------------------------------------

*** Psi4 exiting successfully. Buy a developer a beer!
