                               Psi4 1.4a2.dev224

  ==> Input File <==

--------------------------------------------------------------------------
#Generated by lconvert.py for sapt job

memory 20 GB

molecule  {
0 1
  C      -1.259210    0.661370   -0.001290
  C      -1.813830   -0.550850    0.000430
  H      -1.873310    1.551250   -0.002520
  H      -0.184860    0.787060   -0.002030
  H      -1.204800   -1.444290    0.003160
  H      -2.886280   -0.685600    0.000960
--
0 1
  N       2.366710   -0.013440   -0.002780
  H       3.257520    0.465820   -0.032490
  H       2.388560   -0.579570    0.835800
  H       2.374480   -0.663730   -0.778260
units angstrom
no_reorient
symmetry c1
}

set {
scf_type DF
basis aug-cc-pvdz
freeze_core True
guess SAD
}
energy('sapt2+')
--------------------------------------------------------------------------

  //              Dimer HF             //
    Molecular point group: c1
  Charge       = 0
  Multiplicity = 1
  Basis Set: AUG-CC-PVDZ
    Blend: AUG-CC-PVDZ
  Basis Set: (AUG-CC-PVDZ AUX)
    Blend: AUG-CC-PVDZ-JKFIT
  @DF-RHF Final Energy:  -134.24988442242451
    Total Energy =                       -134.2498844224245147
  //            Monomer A HF           //
    Molecular point group: c1
  Multiplicity = 1
  Basis Set: AUG-CC-PVDZ
    Blend: AUG-CC-PVDZ
  Basis Set: (AUG-CC-PVDZ AUX)
    Blend: AUG-CC-PVDZ-JKFIT
  @DF-RHF Final Energy:   -78.04359196718906
    Total Energy =                        -78.0435919671890588
  //            Monomer B HF           //
    Molecular point group: c1

    Geometry (in Angstrom), charge = 0, multiplicity = 1:

       Center              X                  Y                   Z               Mass
    ------------   -----------------  -----------------  -----------------  -----------------
      Gh(C)          -1.218166947712     0.648841089229    -0.000747677322    12.000000000000
      Gh(C)          -1.772786947712    -0.563378910771     0.000972322678    12.000000000000
      Gh(H)          -1.832266947712     1.538721089229    -0.001977677322     1.007825032230
      Gh(H)          -0.143816947712     0.774531089229    -0.001487677322     1.007825032230
      Gh(H)          -1.163756947712    -1.456818910771     0.003702322678     1.007825032230
      Gh(H)          -2.845236947712    -0.698128910771     0.001502322678     1.007825032230
         N            2.407753052288    -0.025968910771    -0.002237677322    14.003074004430
         H            3.298563052288     0.453291089229    -0.031947677322     1.007825032230
         H            2.429603052288    -0.592098910771     0.836342322678     1.007825032230
         H            2.415523052288    -0.676258910771    -0.777717677322     1.007825032230

  Charge       = 0
  Multiplicity = 1
  Basis Set: AUG-CC-PVDZ
    Blend: AUG-CC-PVDZ
  Basis Set: (AUG-CC-PVDZ AUX)
    Blend: AUG-CC-PVDZ-JKFIT

    Orbital Energies [Eh]
    ---------------------

    Doubly Occupied:

       1A    -15.552093     2A     -1.145779     3A     -0.627893
       4A     -0.627092     5A     -0.431316

  @DF-RHF Final Energy:   -56.20565896037463

   => Energetics <=

    Nuclear Repulsion Energy =             11.9635165335652225
    One-Electron Energy =                 -99.5700014604383057
    Two-Electron Energy =                  31.4008259664984486
    Total Energy =                        -56.2056589603746346

  Dipole Moment: [D]
     X:     1.2934      Y:    -1.0379      Z:     0.0452     Total:     1.6589

    SAPT Results
  --------------------------------------------------------------------------------------------------------
    Electrostatics                 -2.64280311 [mEh]      -1.65838399 [kcal/mol]      -6.93867860 [kJ/mol]
      Elst10,r                     -2.62043302 [mEh]      -1.64434655 [kcal/mol]      -6.87994595 [kJ/mol]
      Elst12,r                     -0.02237009 [mEh]      -0.01403744 [kcal/mol]      -0.05873265 [kJ/mol]

    Exchange                        3.18968876 [mEh]       2.00155992 [kcal/mol]       8.37452668 [kJ/mol]
      Exch10                        2.76925975 [mEh]       1.73773673 [kcal/mol]       7.27069047 [kJ/mol]
      Exch10(S^2)                   2.76224933 [mEh]       1.73333762 [kcal/mol]       7.25228461 [kJ/mol]
      Exch11(S^2)                  -0.00281566 [mEh]      -0.00176685 [kcal/mol]      -0.00739252 [kJ/mol]
      Exch12(S^2)                   0.42324467 [mEh]       0.26559004 [kcal/mol]       1.11122873 [kJ/mol]

    Induction                      -0.82968779 [mEh]      -0.52063695 [kcal/mol]      -2.17834498 [kJ/mol]
      Ind20,r                      -0.89361928 [mEh]      -0.56075457 [kcal/mol]      -2.34619711 [kJ/mol]
      Ind22                        -0.08415108 [mEh]      -0.05280560 [kcal/mol]      -0.22093864 [kJ/mol]
      Exch-Ind20,r                  0.39062700 [mEh]       0.24512214 [kcal/mol]       1.02559105 [kJ/mol]
      Exch-Ind22                    0.03678489 [mEh]       0.02308287 [kcal/mol]       0.09657871 [kJ/mol]
      delta HF,r (2)               -0.27932931 [mEh]      -0.17528179 [kcal/mol]      -0.73337900 [kJ/mol]

    Dispersion                     -1.92232587 [mEh]      -1.20627770 [kcal/mol]      -5.04706588 [kJ/mol]
      Disp20                       -1.92639050 [mEh]      -1.20882829 [kcal/mol]      -5.05773755 [kJ/mol]
      Disp21                        0.01429764 [mEh]       0.00897190 [kcal/mol]       0.03753844 [kJ/mol]
      Disp22 (SDQ)                  0.03131288 [mEh]       0.01964913 [kcal/mol]       0.08221195 [kJ/mol]
      Disp22 (T)                   -0.24232712 [mEh]      -0.15206256 [kcal/mol]      -0.63622976 [kJ/mol]
      Est. Disp22 (T)              -0.27579429 [mEh]      -0.17306353 [kcal/mol]      -0.72409782 [kJ/mol]
      Exch-Disp20                   0.23424840 [mEh]       0.14699309 [kcal/mol]       0.61501909 [kJ/mol]

  Total HF                         -0.63349486 [mEh]      -0.39752403 [kcal/mol]      -1.66324053 [kJ/mol]
  Total SAPT0                      -2.32563696 [mEh]      -1.45935922 [kcal/mol]      -6.10595899 [kJ/mol]
  Total SAPT2                      -1.97494423 [mEh]      -1.23929621 [kcal/mol]      -5.18521535 [kJ/mol]
  Total SAPT2+                     -2.20512801 [mEh]      -1.38373871 [kcal/mol]      -5.78956278 [kJ/mol]

  Special recipe for scaled SAPT0 (see Manual):
    Electrostatics sSAPT0          -2.62043302 [mEh]      -1.64434655 [kcal/mol]      -6.87994595 [kJ/mol]
    Exchange sSAPT0                 2.76925975 [mEh]       1.73773673 [kcal/mol]       7.27069047 [kJ/mol]
    Induction sSAPT0               -0.77933987 [mEh]      -0.48904315 [kcal/mol]      -2.04615656 [kJ/mol]
    Dispersion sSAPT0              -1.69035404 [mEh]      -1.06071317 [kcal/mol]      -4.43802392 [kJ/mol]
  Total sSAPT0                     -2.32086718 [mEh]      -1.45636614 [kcal/mol]      -6.09343595 [kJ/mol]
  --------------------------------------------------------------------------------------------------------

*** Psi4 exiting successfully. Buy a developer a beer!
