                               Psi4 1.4a2.dev224

  ==> Input File <==

--------------------------------------------------------------------------
#Generated by lconvert.py for sapt job

memory 20 GB

molecule  {
0 1
  C      -1.259210    0.661370   -0.001290
  C      -1.813830   -0.550850    0.000430
  H      -1.873310    1.551250   -0.002520
  H      -0.184860    0.787060   -0.002030
  H      -1.204800   -1.444290    0.003160
  H      -2.886280   -0.685600    0.000960
--
0 1
  N       3.221860   -0.028390   -0.003310
  H       4.112670    0.450870   -0.033020
  H       3.243710   -0.594520    0.835280
  H       3.229640   -0.678680   -0.778780
units angstrom
no_reorient
symmetry c1
}

set {
scf_type DF
basis aug-cc-pvdz
freeze_core True
guess SAD
}
energy('sapt2+')
--------------------------------------------------------------------------

  //              Dimer HF             //
    Molecular point group: c1
  Charge       = 0
  Multiplicity = 1
  Basis Set: AUG-CC-PVDZ
    Blend: AUG-CC-PVDZ
  Basis Set: (AUG-CC-PVDZ AUX)
    Blend: AUG-CC-PVDZ-JKFIT
  @DF-RHF Final Energy:  -134.24963876980851
    Total Energy =                       -134.2496387698085130
  //            Monomer A HF           //
    Molecular point group: c1
  Multiplicity = 1
  Basis Set: AUG-CC-PVDZ
    Blend: AUG-CC-PVDZ
  Basis Set: (AUG-CC-PVDZ AUX)
    Blend: AUG-CC-PVDZ-JKFIT
  @DF-RHF Final Energy:   -78.04353168273332
    Total Energy =                        -78.0435316827333168
  //            Monomer B HF           //
    Molecular point group: c1

    Geometry (in Angstrom), charge = 0, multiplicity = 1:

       Center              X                  Y                   Z               Mass
    ------------   -----------------  -----------------  -----------------  -----------------
      Gh(C)          -1.541312943158     0.654490424770    -0.000547847222    12.000000000000
      Gh(C)          -2.095932943158    -0.557729575230     0.001172152778    12.000000000000
      Gh(H)          -2.155412943158     1.544370424770    -0.001777847222     1.007825032230
      Gh(H)          -0.466962943158     0.780180424770    -0.001287847222     1.007825032230
      Gh(H)          -1.486902943158    -1.451169575230     0.003902152778     1.007825032230
      Gh(H)          -3.168382943158    -0.692479575230     0.001702152778     1.007825032230
         N            2.939757056842    -0.035269575230    -0.002567847222    14.003074004430
         H            3.830567056842     0.443990424770    -0.032277847222     1.007825032230
         H            2.961607056842    -0.601399575230     0.836022152778     1.007825032230
         H            2.947537056842    -0.685559575230    -0.778037847222     1.007825032230

  Charge       = 0
  Multiplicity = 1
  Basis Set: AUG-CC-PVDZ
    Blend: AUG-CC-PVDZ
  Basis Set: (AUG-CC-PVDZ AUX)
    Blend: AUG-CC-PVDZ-JKFIT

    Orbital Energies [Eh]
    ---------------------

    Doubly Occupied:

       1A    -15.552195     2A     -1.145745     3A     -0.627949
       4A     -0.627114     5A     -0.431399

  @DF-RHF Final Energy:   -56.20540895659813

   => Energetics <=

    Nuclear Repulsion Energy =             11.9635149614247869
    One-Electron Energy =                 -99.5690420061143868
    Two-Electron Energy =                  31.4001180880914674
    Total Energy =                        -56.2054089565981272

  Dipole Moment: [D]
     X:     1.2961      Y:    -1.0395      Z:     0.0453     Total:     1.6621

    SAPT Results
  --------------------------------------------------------------------------------------------------------
    Electrostatics                 -0.68265911 [mEh]      -0.42837506 [kcal/mol]      -1.79232124 [kJ/mol]
      Elst10,r                     -0.74059407 [mEh]      -0.46472979 [kcal/mol]      -1.94442945 [kJ/mol]
      Elst12,r                      0.05793496 [mEh]       0.03635474 [kcal/mol]       0.15210821 [kJ/mol]

    Exchange                        0.21523700 [mEh]       0.13506326 [kcal/mol]       0.56510467 [kJ/mol]
      Exch10                        0.17371563 [mEh]       0.10900820 [kcal/mol]       0.45609033 [kJ/mol]
      Exch10(S^2)                   0.17368178 [mEh]       0.10898697 [kcal/mol]       0.45600146 [kJ/mol]
      Exch11(S^2)                  -0.00291954 [mEh]      -0.00183204 [kcal/mol]      -0.00766526 [kJ/mol]
      Exch12(S^2)                   0.04444091 [mEh]       0.02788709 [kcal/mol]       0.11667960 [kJ/mol]

    Induction                      -0.13422304 [mEh]      -0.08422623 [kcal/mol]      -0.35240254 [kJ/mol]
      Ind20,r                      -0.13437757 [mEh]      -0.08432320 [kcal/mol]      -0.35280826 [kJ/mol]
      Ind22                        -0.00345855 [mEh]      -0.00217027 [kcal/mol]      -0.00908042 [kJ/mol]
      Exch-Ind20,r                  0.01894321 [mEh]       0.01188705 [kcal/mol]       0.04973540 [kJ/mol]
      Exch-Ind22                    0.00048755 [mEh]       0.00030594 [kcal/mol]       0.00128007 [kJ/mol]
      delta HF,r (2)               -0.01581769 [mEh]      -0.00992575 [kcal/mol]      -0.04152933 [kJ/mol]

    Dispersion                     -0.49955483 [mEh]      -0.31347539 [kcal/mol]      -1.31158103 [kJ/mol]
      Disp20                       -0.46467345 [mEh]      -0.29158699 [kcal/mol]      -1.21999998 [kJ/mol]
      Disp21                        0.00659515 [mEh]       0.00413852 [kcal/mol]       0.01731557 [kJ/mol]
      Disp22 (SDQ)                  0.00872713 [mEh]       0.00547635 [kcal/mol]       0.02291307 [kJ/mol]
      Disp22 (T)                   -0.06447792 [mEh]      -0.04046050 [kcal/mol]      -0.16928675 [kJ/mol]
      Est. Disp22 (T)              -0.06964270 [mEh]      -0.04370145 [kcal/mol]      -0.18284689 [kJ/mol]
      Exch-Disp20                   0.01943904 [mEh]       0.01219818 [kcal/mol]       0.05103719 [kJ/mol]

  Total HF                         -0.69813048 [mEh]      -0.43808349 [kcal/mol]      -1.83294132 [kJ/mol]
  Total SAPT0                      -1.14336489 [mEh]      -0.71747230 [kcal/mol]      -3.00190410 [kJ/mol]
  Total SAPT2                      -1.04687955 [mEh]      -0.65692684 [kcal/mol]      -2.74858189 [kJ/mol]
  Total SAPT2+                     -1.10119998 [mEh]      -0.69101342 [kcal/mol]      -2.89120014 [kJ/mol]

  Special recipe for scaled SAPT0 (see Manual):
    Electrostatics sSAPT0          -0.74059407 [mEh]      -0.46472979 [kcal/mol]      -1.94442945 [kJ/mol]
    Exchange sSAPT0                 0.17371563 [mEh]       0.10900820 [kcal/mol]       0.45609033 [kJ/mol]
    Induction sSAPT0               -0.13124097 [mEh]      -0.08235495 [kcal/mol]      -0.34457311 [kJ/mol]
    Dispersion sSAPT0              -0.44522304 [mEh]      -0.27938168 [kcal/mol]      -1.16893294 [kJ/mol]
  Total sSAPT0                     -1.14334244 [mEh]      -0.71745821 [kcal/mol]      -3.00184517 [kJ/mol]
  --------------------------------------------------------------------------------------------------------

*** Psi4 exiting successfully. Buy a developer a beer!
