                               Psi4 1.4a2.dev224

  ==> Input File <==

--------------------------------------------------------------------------
#Generated by lconvert.py for sapt job

memory 20 GB

molecule  {
0 1
  C      -1.259210    0.661370   -0.001290
  C      -1.813830   -0.550850    0.000430
  H      -1.873310    1.551250   -0.002520
  H      -0.184860    0.787060   -0.002030
  H      -1.204800   -1.444290    0.003160
  H      -2.886280   -0.685600    0.000960
--
0 1
  N       1.514280    0.001470   -0.002260
  H       2.405090    0.480720   -0.031970
  H       1.536130   -0.564660    0.836330
  H       1.522050   -0.648830   -0.777730
units angstrom
no_reorient
symmetry c1
}

set {
scf_type DF
basis aug-cc-pvdz
freeze_core True
guess SAD
}
energy('sapt2+')
--------------------------------------------------------------------------

  //              Dimer HF             //
    Molecular point group: c1
  Charge       = 0
  Multiplicity = 1
  Basis Set: AUG-CC-PVDZ
    Blend: AUG-CC-PVDZ
  Basis Set: (AUG-CC-PVDZ AUX)
    Blend: AUG-CC-PVDZ-JKFIT
  @DF-RHF Final Energy:  -134.23619150180028
    Total Energy =                       -134.2361915018002492
  //            Monomer A HF           //
    Molecular point group: c1
  Basis Set: AUG-CC-PVDZ
    Blend: AUG-CC-PVDZ
  Basis Set: (AUG-CC-PVDZ AUX)
    Blend: AUG-CC-PVDZ-JKFIT
  @DF-RHF Final Energy:   -78.04365758716487
    Total Energy =                        -78.0436575871648728
  //            Monomer B HF           //
  Basis Set: AUG-CC-PVDZ
    Blend: AUG-CC-PVDZ
  Basis Set: (AUG-CC-PVDZ AUX)
    Blend: AUG-CC-PVDZ-JKFIT
  @DF-RHF Final Energy:   -56.20604380546047
    Total Energy =                        -56.2060438054604674
*** Psi4 exiting successfully. Buy a developer a beer!
                               Psi4 1.4a2.dev224
  //              Dimer HF             //
  Basis Set: AUG-CC-PVDZ
    Blend: AUG-CC-PVDZ
  Basis Set: (AUG-CC-PVDZ AUX)
    Blend: AUG-CC-PVDZ-JKFIT
  @DF-RHF Final Energy:  -134.24544365580689
    Total Energy =                       -134.2454436558068949
  @DF-RHF Final Energy:   -78.04363480194742
    Total Energy =                        -78.0436348019474195
  @DF-RHF Final Energy:   -56.20590147059387
    Total Energy =                        -56.2059014705938722
*** Psi4 exiting successfully. Buy a developer a beer!
                               Psi4 1.4a2.dev224
  @DF-RHF Final Energy:  -134.24884622711616
    Total Energy =                       -134.2488462271161609
  @DF-RHF Final Energy:   -78.04361410097812
    Total Energy =                        -78.0436141009781181
  @DF-RHF Final Energy:   -56.20576836769560
    Total Energy =                        -56.2057683676955975
                               Psi4 1.4a2.dev224
  @DF-RHF Final Energy:  -134.24954084963568
    Total Energy =                       -134.2495408496356788
  @DF-RHF Final Energy:   -78.04360326183344
    Total Energy =                        -78.0436032618334394
  @DF-RHF Final Energy:   -56.20571239519873
    Total Energy =                        -56.2057123951987307
                               Psi4 1.4a2.dev224
  @DF-RHF Final Energy:  -134.24988442242451
    Total Energy =                       -134.2498844224245147
  @DF-RHF Final Energy:   -78.04359196718906
    Total Energy =                        -78.0435919671890588
  @DF-RHF Final Energy:   -56.20565896037463
    Total Energy =                        -56.2056589603746346
                               Psi4 1.4a2.dev224
  @DF-RHF Final Energy:  -134.25001359339439
    Total Energy =                       -134.2500135933943852
  @DF-RHF Final Energy:   -78.04358040156802
    Total Energy =                        -78.0435804015680219
  @DF-RHF Final Energy:   -56.20560588414894
    Total Energy =                        -56.2056058841489445
                               Psi4 1.4a2.dev224
  @DF-RHF Final Energy:  -134.25001869289852
    Total Energy =                       -134.2500186928985499
  @DF-RHF Final Energy:   -78.04356897972923
    Total Energy =                        -78.0435689797292298
  @DF-RHF Final Energy:   -56.20555525164934
    Total Energy =                        -56.2055552516493435
                               Psi4 1.4a2.dev224
  @DF-RHF Final Energy:  -134.24963876980851
    Total Energy =                       -134.2496387698085130
  @DF-RHF Final Energy:   -78.04353168273332
    Total Energy =                        -78.0435316827333168
  @DF-RHF Final Energy:   -56.20540895659813
    Total Energy =                        -56.2054089565981272
                               Psi4 1.4a2.dev224
  @DF-RHF Final Energy:  -134.24919070882609
    Total Energy =                       -134.2491907088260916
  @DF-RHF Final Energy:   -78.04350872093391
    Total Energy =                        -78.0435087209339144
  //            Monomer B HF           //
  Basis Set: AUG-CC-PVDZ
    Blend: AUG-CC-PVDZ
  Basis Set: (AUG-CC-PVDZ AUX)
    Blend: AUG-CC-PVDZ-JKFIT
  @DF-RHF Final Energy:   -56.20534322819064
    Total Energy =                        -56.2053432281906353
*** Psi4 exiting successfully. Buy a developer a beer!
                               Psi4 1.4a2.dev224
  //              Dimer HF             //
  Basis Set: AUG-CC-PVDZ
    Blend: AUG-CC-PVDZ
  Basis Set: (AUG-CC-PVDZ AUX)
    Blend: AUG-CC-PVDZ-JKFIT
  @DF-RHF Final Energy:  -134.24899800785991
    Total Energy =                       -134.2489980078599103
  //            Monomer A HF           //
  Multiplicity = 1
  Basis Set: AUG-CC-PVDZ
    Blend: AUG-CC-PVDZ
  Basis Set: (AUG-CC-PVDZ AUX)
    Blend: AUG-CC-PVDZ-JKFIT
  @DF-RHF Final Energy:   -78.04349728922512
    Total Energy =                        -78.0434972892251153
  //            Monomer B HF           //
    Molecular point group: c1

    Geometry (in Angstrom), charge = 0, multiplicity = 1:

       Center              X                  Y                   Z               Mass
    ------------   -----------------  -----------------  -----------------  -----------------
      Gh(C)          -2.196015915814     0.665936469823    -0.000143513508    12.000000000000
      Gh(C)          -2.750635915814    -0.546283530177     0.001576486492    12.000000000000
      Gh(H)          -2.810115915814     1.555816469823    -0.001373513508     1.007825032230
      Gh(H)          -1.121665915814     0.791626469823    -0.000883513508     1.007825032230
      Gh(H)          -2.141605915814    -1.439723530177     0.004306486492     1.007825032230
      Gh(H)          -3.823085915814    -0.681033530177     0.002106486492     1.007825032230
         N            4.017614084186    -0.054113530177    -0.003233513508    14.003074004430
         H            4.908424084186     0.425146469823    -0.032943513508     1.007825032230
         H            4.039464084186    -0.620243530177     0.835356486492     1.007825032230
         H            4.025384084186    -0.704403530177    -0.778703513508     1.007825032230

  Charge       = 0
  Multiplicity = 1
  Basis Set: AUG-CC-PVDZ
    Blend: AUG-CC-PVDZ
  Basis Set: (AUG-CC-PVDZ AUX)
    Blend: AUG-CC-PVDZ-JKFIT

    Orbital Energies [Eh]
    ---------------------

    Doubly Occupied:

       1A    -15.552215     2A     -1.145743     3A     -0.627957
       4A     -0.627109     5A     -0.431419

  @DF-RHF Final Energy:   -56.20532893736170

   => Energetics <=

    Nuclear Repulsion Energy =             11.9635141145463670
    One-Electron Energy =                 -99.5687995210970911
    Two-Electron Energy =                  31.3999564691890214
    Total Energy =                        -56.2053289373616991

  Dipole Moment: [D]
     X:     1.2949      Y:    -1.0412      Z:     0.0454     Total:     1.6622

    SAPT Results
  --------------------------------------------------------------------------------------------------------
    Electrostatics                 -0.14093532 [mEh]      -0.08843825 [kcal/mol]      -0.37002562 [kJ/mol]
      Elst10,r                     -0.16093805 [mEh]      -0.10099015 [kcal/mol]      -0.42254278 [kJ/mol]
      Elst12,r                      0.02000273 [mEh]       0.01255190 [kcal/mol]       0.05251716 [kJ/mol]

    Exchange                        0.00081397 [mEh]       0.00051077 [kcal/mol]       0.00213708 [kJ/mol]
      Exch10                        0.00057943 [mEh]       0.00036360 [kcal/mol]       0.00152131 [kJ/mol]
      Exch10(S^2)                   0.00057943 [mEh]       0.00036360 [kcal/mol]       0.00152130 [kJ/mol]
      Exch11(S^2)                  -0.00002656 [mEh]      -0.00001667 [kcal/mol]      -0.00006973 [kJ/mol]
      Exch12(S^2)                   0.00026110 [mEh]       0.00016384 [kcal/mol]       0.00068551 [kJ/mol]

    Induction                      -0.01090358 [mEh]      -0.00684210 [kcal/mol]      -0.02862735 [kJ/mol]
      Ind20,r                      -0.01188801 [mEh]      -0.00745984 [kcal/mol]      -0.03121195 [kJ/mol]
      Ind22                         0.00052192 [mEh]       0.00032751 [kcal/mol]       0.00137030 [kJ/mol]
      Exch-Ind20,r                  0.00006467 [mEh]       0.00004058 [kcal/mol]       0.00016978 [kJ/mol]
      Exch-Ind22                   -0.00000284 [mEh]      -0.00000178 [kcal/mol]      -0.00000745 [kJ/mol]
      delta HF,r (2)                0.00040068 [mEh]       0.00025143 [kcal/mol]       0.00105197 [kJ/mol]

    Dispersion                     -0.05679517 [mEh]      -0.03563951 [kcal/mol]      -0.14911569 [kJ/mol]
      Disp20                       -0.05375942 [mEh]      -0.03373454 [kcal/mol]      -0.14114533 [kJ/mol]
      Disp21                        0.00321207 [mEh]       0.00201560 [kcal/mol]       0.00843328 [kJ/mol]
      Disp22 (SDQ)                  0.00185752 [mEh]       0.00116561 [kcal/mol]       0.00487692 [kJ/mol]
      Disp22 (T)                   -0.00802308 [mEh]      -0.00503456 [kcal/mol]      -0.02106459 [kJ/mol]
      Est. Disp22 (T)              -0.00819014 [mEh]      -0.00513939 [kcal/mol]      -0.02150321 [kJ/mol]
      Exch-Disp20                   0.00008480 [mEh]       0.00005322 [kcal/mol]       0.00022265 [kJ/mol]

  Total HF                         -0.17178127 [mEh]      -0.10779438 [kcal/mol]      -0.45101167 [kJ/mol]
  Total SAPT0                      -0.22545589 [mEh]      -0.14147571 [kcal/mol]      -0.59193435 [kJ/mol]
  Total SAPT2                      -0.20469954 [mEh]      -0.12845090 [kcal/mol]      -0.53743857 [kJ/mol]
  Total SAPT2+                     -0.20782010 [mEh]      -0.13040908 [kcal/mol]      -0.54563159 [kJ/mol]

  Special recipe for scaled SAPT0 (see Manual):
    Electrostatics sSAPT0          -0.16093805 [mEh]      -0.10099015 [kcal/mol]      -0.42254278 [kJ/mol]
    Exchange sSAPT0                 0.00057943 [mEh]       0.00036360 [kcal/mol]       0.00152131 [kJ/mol]
    Induction sSAPT0               -0.01142266 [mEh]      -0.00716783 [kcal/mol]      -0.02999020 [kJ/mol]
    Dispersion sSAPT0              -0.05367461 [mEh]      -0.03368133 [kcal/mol]      -0.14092268 [kJ/mol]
  Total sSAPT0                     -0.22545589 [mEh]      -0.14147571 [kcal/mol]      -0.59193435 [kJ/mol]
  --------------------------------------------------------------------------------------------------------

*** Psi4 exiting successfully. Buy a developer a beer!
