                               Psi4 1.4a2.dev224

  ==> Input File <==

--------------------------------------------------------------------------
#Generated by lconvert.py for sapt job

memory 20 GB

molecule  {
0 1
  C      -1.259210    0.661370   -0.001290
  C      -1.813830   -0.550850    0.000430
  H      -1.873310    1.551250   -0.002520
  H      -0.184860    0.787060   -0.002030
  H      -1.204800   -1.444290    0.003160
  H      -2.886280   -0.685600    0.000960
--
0 1
  N       1.514280    0.001470   -0.002260
  H       2.405090    0.480720   -0.031970
  H       1.536130   -0.564660    0.836330
  H       1.522050   -0.648830   -0.777730
units angstrom
no_reorient
symmetry c1
}

set {
scf_type DF
basis aug-cc-pvdz
freeze_core True
guess SAD
}
energy('sapt2+')
--------------------------------------------------------------------------

  //              Dimer HF             //
    Molecular point group: c1
  Charge       = 0
  Multiplicity = 1
  Basis Set: AUG-CC-PVDZ
    Blend: AUG-CC-PVDZ
  Basis Set: (AUG-CC-PVDZ AUX)
    Blend: AUG-CC-PVDZ-JKFIT
  @DF-RHF Final Energy:  -134.23619150180028
    Total Energy =                       -134.2361915018002492
  //            Monomer A HF           //
    Molecular point group: c1
  Multiplicity = 1
  Basis Set: AUG-CC-PVDZ
    Blend: AUG-CC-PVDZ
  Basis Set: (AUG-CC-PVDZ AUX)
    Blend: AUG-CC-PVDZ-JKFIT
  @DF-RHF Final Energy:   -78.04365758716487
    Total Energy =                        -78.0436575871648728
  //            Monomer B HF           //
    Molecular point group: c1

    Geometry (in Angstrom), charge = 0, multiplicity = 1:

       Center              X                  Y                   Z               Mass
    ------------   -----------------  -----------------  -----------------  -----------------
      Gh(C)          -0.896049014915     0.643207316314    -0.000944623297    12.000000000000
      Gh(C)          -1.450669014915    -0.569012683686     0.000775376703    12.000000000000
      Gh(H)          -1.510149014915     1.533087316314    -0.002174623297     1.007825032230
      Gh(H)           0.178300985085     0.768897316314    -0.001684623297     1.007825032230
      Gh(H)          -0.841639014915    -1.462452683686     0.003505376703     1.007825032230
      Gh(H)          -2.523119014915    -0.703762683686     0.001305376703     1.007825032230
         N            1.877440985085    -0.016692683686    -0.001914623297    14.003074004430
         H            2.768250985085     0.462557316314    -0.031624623297     1.007825032230
         H            1.899290985085    -0.582822683686     0.836675376703     1.007825032230
         H            1.885210985085    -0.666992683686    -0.777384623297     1.007825032230

  Charge       = 0
  Multiplicity = 1
  Basis Set: AUG-CC-PVDZ
    Blend: AUG-CC-PVDZ
  Basis Set: (AUG-CC-PVDZ AUX)
    Blend: AUG-CC-PVDZ-JKFIT

    Orbital Energies [Eh]
    ---------------------

    Doubly Occupied:

       1A    -15.552088     2A     -1.145830     3A     -0.627832
       4A     -0.627043     5A     -0.431208

  @DF-RHF Final Energy:   -56.20604380546047

   => Energetics <=

    Nuclear Repulsion Energy =             11.9635092202327957
    One-Electron Energy =                 -99.5711049055290118
    Two-Electron Energy =                  31.4015518798357505
    Total Energy =                        -56.2060438054604674

  Dipole Moment: [D]
     X:     1.2925      Y:    -1.0362      Z:     0.0451     Total:     1.6572

    SAPT Results
  --------------------------------------------------------------------------------------------------------
    Electrostatics                -19.10399603 [mEh]     -11.98793850 [kcal/mol]     -50.15753468 [kJ/mol]
      Elst10,r                    -18.18800930 [mEh]     -11.41314815 [kcal/mol]     -47.75261185 [kJ/mol]
      Elst12,r                     -0.91598673 [mEh]      -0.57479035 [kcal/mol]      -2.40492283 [kJ/mol]

    Exchange                       41.58477441 [mEh]      26.09483991 [kcal/mol]     109.18081017 [kJ/mol]
      Exch10                       38.91064839 [mEh]      24.41680049 [kcal/mol]     102.15989327 [kJ/mol]
      Exch10(S^2)                  37.84140447 [mEh]      23.74583981 [kcal/mol]      99.35259375 [kJ/mol]
      Exch11(S^2)                   0.33042640 [mEh]       0.20734569 [kcal/mol]       0.86753438 [kJ/mol]
      Exch12(S^2)                   2.34369963 [mEh]       1.47069372 [kcal/mol]       6.15338253 [kJ/mol]

    Induction                      -7.56055189 [mEh]      -4.74431794 [kcal/mol]     -19.85022626 [kJ/mol]
      Ind20,r                     -11.94711629 [mEh]      -7.49692865 [kcal/mol]     -31.36714949 [kJ/mol]
      Ind22                        -1.22993756 [mEh]      -0.77179747 [kcal/mol]      -3.22920062 [kJ/mol]
      Exch-Ind20,r                  8.56869238 [mEh]       5.37693564 [kcal/mol]      22.49709874 [kJ/mol]
      Exch-Ind22                    0.88213393 [mEh]       0.55354740 [kcal/mol]       2.31604230 [kJ/mol]
      delta HF,r (2)               -3.83432435 [mEh]      -2.40607486 [kcal/mol]     -10.06701719 [kJ/mol]

    Dispersion                     -8.24052099 [mEh]      -5.17100499 [kcal/mol]     -21.63548488 [kJ/mol]
      Disp20                       -9.97466509 [mEh]      -6.25919684 [kcal/mol]     -26.18847959 [kJ/mol]
      Disp21                        0.50645829 [mEh]       0.31780737 [kcal/mol]       1.32970605 [kJ/mol]
      Disp22 (SDQ)                  0.19518432 [mEh]       0.12248001 [kcal/mol]       0.51245636 [kJ/mol]
      Disp22 (T)                   -1.11059662 [mEh]      -0.69690990 [kcal/mol]      -2.91587102 [kJ/mol]
      Est. Disp22 (T)              -1.24067264 [mEh]      -0.77853384 [kcal/mol]      -3.25738558 [kJ/mol]
      Exch-Disp20                   2.27317414 [mEh]       1.42643831 [kcal/mol]       5.96821788 [kJ/mol]

  Total HF                         13.50989083 [mEh]       8.47758448 [kcal/mol]      35.47021347 [kJ/mol]
  Total SAPT0                       5.80839987 [mEh]       3.64482595 [kcal/mol]      15.24995177 [kJ/mol]
  Total SAPT2                       7.21873553 [mEh]       4.52982494 [kcal/mol]      18.95278753 [kJ/mol]
  Total SAPT2+                      6.67970550 [mEh]       4.19157848 [kcal/mol]      17.53756436 [kJ/mol]

  Special recipe for scaled SAPT0 (see Manual):
    Electrostatics sSAPT0         -18.18800930 [mEh]     -11.41314815 [kcal/mol]     -47.75261185 [kJ/mol]
    Exchange sSAPT0                38.91064839 [mEh]      24.41680049 [kcal/mol]     102.15989327 [kJ/mol]
    Induction sSAPT0               -6.46568228 [mEh]      -4.05727689 [kcal/mol]     -16.97564650 [kJ/mol]
    Dispersion sSAPT0              -7.50330306 [mEh]      -4.70839376 [kcal/mol]     -19.69991948 [kJ/mol]
  Total sSAPT0                      6.75365374 [mEh]       4.23798170 [kcal/mol]      17.73171544 [kJ/mol]
  --------------------------------------------------------------------------------------------------------

*** Psi4 exiting successfully. Buy a developer a beer!
