                               Psi4 1.4a2.dev224

  ==> Input File <==

--------------------------------------------------------------------------
#Generated by lconvert.py for sapt job

memory 20 GB

molecule  {
0 1
  C      -1.259210    0.661370   -0.001290
  C      -1.813830   -0.550850    0.000430
  H      -1.873310    1.551250   -0.002520
  H      -0.184860    0.787060   -0.002030
  H      -1.204800   -1.444290    0.003160
  H      -2.886280   -0.685600    0.000960
--
0 1
  N       4.088140   -0.043530   -0.003840
  H       4.978950    0.435720   -0.033550
  H       4.109990   -0.609660    0.834740
  H       4.095910   -0.693830   -0.779320
units angstrom
no_reorient
symmetry c1
}

set {
scf_type DF
basis aug-cc-pvdz
freeze_core True
guess SAD
}
energy('sapt2+')
--------------------------------------------------------------------------

  //              Dimer HF             //
    Molecular point group: c1
  Charge       = 0
  Multiplicity = 1
  Basis Set: AUG-CC-PVDZ
    Blend: AUG-CC-PVDZ
  Basis Set: (AUG-CC-PVDZ AUX)
    Blend: AUG-CC-PVDZ-JKFIT
  @DF-RHF Final Energy:  -134.24919070882609
    Total Energy =                       -134.2491907088260916
  //            Monomer A HF           //
    Molecular point group: c1
  Multiplicity = 1
  Basis Set: AUG-CC-PVDZ
    Blend: AUG-CC-PVDZ
  Basis Set: (AUG-CC-PVDZ AUX)
    Blend: AUG-CC-PVDZ-JKFIT
  @DF-RHF Final Energy:   -78.04350872093391
    Total Energy =                        -78.0435087209339144
  //            Monomer B HF           //
    Molecular point group: c1

    Geometry (in Angstrom), charge = 0, multiplicity = 1:

       Center              X                  Y                   Z               Mass
    ------------   -----------------  -----------------  -----------------  -----------------
      Gh(C)          -1.868664317649     0.660212005234    -0.000347122428    12.000000000000
      Gh(C)          -2.423284317649    -0.552007994766     0.001372877572    12.000000000000
      Gh(H)          -2.482764317649     1.550092005234    -0.001577122428     1.007825032230
      Gh(H)          -0.794314317649     0.785902005234    -0.001087122428     1.007825032230
      Gh(H)          -1.814254317649    -1.445447994766     0.004102877572     1.007825032230
      Gh(H)          -3.495734317649    -0.686757994766     0.001902877572     1.007825032230
         N            3.478685682351    -0.044687994766    -0.002897122428    14.003074004430
         H            4.369495682351     0.434562005234    -0.032607122428     1.007825032230
         H            3.500535682351    -0.610817994766     0.835682877572     1.007825032230
         H            3.486455682351    -0.694987994766    -0.778377122428     1.007825032230

  Charge       = 0
  Multiplicity = 1
  Basis Set: AUG-CC-PVDZ
    Blend: AUG-CC-PVDZ
  Basis Set: (AUG-CC-PVDZ AUX)
    Blend: AUG-CC-PVDZ-JKFIT

    Orbital Energies [Eh]
    ---------------------

    Doubly Occupied:

       1A    -15.552224     2A     -1.145744     3A     -0.627954
       4A     -0.627112     5A     -0.431419

  @DF-RHF Final Energy:   -56.20534322819064

   => Energetics <=

    Nuclear Repulsion Energy =             11.9635116397925874
    One-Electron Energy =                 -99.5688022462138491
    Two-Electron Energy =                  31.3999473782306282
    Total Energy =                        -56.2053432281906353

  Dipole Moment: [D]
     X:     1.2945      Y:    -1.0407      Z:     0.0454     Total:     1.6616

    SAPT Results
  --------------------------------------------------------------------------------------------------------
    Electrostatics                 -0.27893673 [mEh]      -0.17503544 [kcal/mol]      -0.73234828 [kJ/mol]
      Elst10,r                     -0.31511203 [mEh]      -0.19773578 [kcal/mol]      -0.82732652 [kJ/mol]
      Elst12,r                      0.03617530 [mEh]       0.02270034 [kcal/mol]       0.09497823 [kJ/mol]

    Exchange                        0.01322261 [mEh]       0.00829731 [kcal/mol]       0.03471595 [kJ/mol]
      Exch10                        0.00991748 [mEh]       0.00622331 [kcal/mol]       0.02603833 [kJ/mol]
      Exch10(S^2)                   0.00991734 [mEh]       0.00622323 [kcal/mol]       0.02603799 [kJ/mol]
      Exch11(S^2)                  -0.00032605 [mEh]      -0.00020460 [kcal/mol]      -0.00085605 [kJ/mol]
      Exch12(S^2)                   0.00363118 [mEh]       0.00227860 [kcal/mol]       0.00953366 [kJ/mol]

    Induction                      -0.03273408 [mEh]      -0.02054095 [kcal/mol]      -0.08594332 [kJ/mol]
      Ind20,r                      -0.03409611 [mEh]      -0.02139563 [kcal/mol]      -0.08951933 [kJ/mol]
      Ind22                         0.00085606 [mEh]       0.00053719 [kcal/mol]       0.00224759 [kJ/mol]
      Exch-Ind20,r                  0.00099533 [mEh]       0.00062458 [kcal/mol]       0.00261323 [kJ/mol]
      Exch-Ind22                   -0.00002499 [mEh]      -0.00001568 [kcal/mol]      -0.00006561 [kJ/mol]
      delta HF,r (2)               -0.00046436 [mEh]      -0.00029139 [kcal/mol]      -0.00121919 [kJ/mol]

    Dispersion                     -0.15086876 [mEh]      -0.09467158 [kcal/mol]      -0.39610587 [kJ/mol]
      Disp20                       -0.14069596 [mEh]      -0.08828805 [kcal/mol]      -0.36939719 [kJ/mol]
      Disp21                        0.00578168 [mEh]       0.00362806 [kcal/mol]       0.01517979 [kJ/mol]
      Disp22 (SDQ)                  0.00390354 [mEh]       0.00244951 [kcal/mol]       0.01024873 [kJ/mol]
      Disp22 (T)                   -0.02013665 [mEh]      -0.01263594 [kcal/mol]      -0.05286876 [kJ/mol]
      Est. Disp22 (T)              -0.02121056 [mEh]      -0.01330983 [kcal/mol]      -0.05568832 [kJ/mol]
      Exch-Disp20                   0.00135255 [mEh]       0.00084874 [kcal/mol]       0.00355112 [kJ/mol]

  Total HF                         -0.33875970 [mEh]      -0.21257492 [kcal/mol]      -0.88941347 [kJ/mol]
  Total SAPT0                      -0.47810311 [mEh]      -0.30001423 [kcal/mol]      -1.25525954 [kJ/mol]
  Total SAPT2                      -0.43779161 [mEh]      -0.27471838 [kcal/mol]      -1.14942172 [kJ/mol]
  Total SAPT2+                     -0.44931696 [mEh]      -0.28195065 [kcal/mol]      -1.17968152 [kJ/mol]

  Special recipe for scaled SAPT0 (see Manual):
    Electrostatics sSAPT0          -0.31511203 [mEh]      -0.19773578 [kcal/mol]      -0.82732652 [kJ/mol]
    Exchange sSAPT0                 0.00991748 [mEh]       0.00622331 [kcal/mol]       0.02603833 [kJ/mol]
    Induction sSAPT0               -0.03356515 [mEh]      -0.02106245 [kcal/mol]      -0.08812529 [kJ/mol]
    Dispersion sSAPT0              -0.13934341 [mEh]      -0.08743931 [kcal/mol]      -0.36584607 [kJ/mol]
  Total sSAPT0                     -0.47810311 [mEh]      -0.30001423 [kcal/mol]      -1.25525954 [kJ/mol]
  --------------------------------------------------------------------------------------------------------

*** Psi4 exiting successfully. Buy a developer a beer!
