                               Psi4 1.4a2.dev224

  ==> Input File <==

--------------------------------------------------------------------------
#Generated by lconvert.py for sapt job

memory 20 GB

molecule  {
0 1
  C      -1.259210    0.661370   -0.001290
  C      -1.813830   -0.550850    0.000430
  H      -1.873310    1.551250   -0.002520
  H      -0.184860    0.787060   -0.002030
  H      -1.204800   -1.444290    0.003160
  H      -2.886280   -0.685600    0.000960
--
0 1
  N       2.644350   -0.018290   -0.002950
  H       3.535160    0.460970   -0.032660
  H       2.666200   -0.584420    0.835630
  H       2.652120   -0.668580   -0.778430
units angstrom
no_reorient
symmetry c1
}

set {
scf_type DF
basis aug-cc-pvdz
freeze_core True
guess SAD
}
energy('sapt2+')
--------------------------------------------------------------------------

  //              Dimer HF             //
    Molecular point group: c1
  Charge       = 0
  Multiplicity = 1
  Basis Set: AUG-CC-PVDZ
    Blend: AUG-CC-PVDZ
  Basis Set: (AUG-CC-PVDZ AUX)
    Blend: AUG-CC-PVDZ-JKFIT
  @DF-RHF Final Energy:  -134.25001869289852
    Total Energy =                       -134.2500186928985499
  //            Monomer A HF           //
    Molecular point group: c1
  Multiplicity = 1
  Basis Set: AUG-CC-PVDZ
    Blend: AUG-CC-PVDZ
  Basis Set: (AUG-CC-PVDZ AUX)
    Blend: AUG-CC-PVDZ-JKFIT
  @DF-RHF Final Energy:   -78.04356897972923
    Total Energy =                        -78.0435689797292298
  //            Monomer B HF           //
    Molecular point group: c1

    Geometry (in Angstrom), charge = 0, multiplicity = 1:

       Center              X                  Y                   Z               Mass
    ------------   -----------------  -----------------  -----------------  -----------------
      Gh(C)          -1.323082099528     0.650673816813    -0.000683437387    12.000000000000
      Gh(C)          -1.877702099528    -0.561546183187     0.001036562613    12.000000000000
      Gh(H)          -1.937182099528     1.540553816813    -0.001913437387     1.007825032230
      Gh(H)          -0.248732099528     0.776363816813    -0.001423437387     1.007825032230
      Gh(H)          -1.268672099528    -1.454986183187     0.003766562613     1.007825032230
      Gh(H)          -2.950152099528    -0.696296183187     0.001566562613     1.007825032230
         N            2.580477900472    -0.028986183187    -0.002343437387    14.003074004430
         H            3.471287900472     0.450273816813    -0.032053437387     1.007825032230
         H            2.602327900472    -0.595116183187     0.836236562613     1.007825032230
         H            2.588247900472    -0.679276183187    -0.777823437387     1.007825032230

  Charge       = 0
  Multiplicity = 1
  Basis Set: AUG-CC-PVDZ
    Blend: AUG-CC-PVDZ
  Basis Set: (AUG-CC-PVDZ AUX)
    Blend: AUG-CC-PVDZ-JKFIT

    Orbital Energies [Eh]
    ---------------------

    Doubly Occupied:

       1A    -15.552109     2A     -1.145764     3A     -0.627920
       4A     -0.627112     5A     -0.431350

  @DF-RHF Final Energy:   -56.20555525164934

   => Energetics <=

    Nuclear Repulsion Energy =             11.9635165335652243
    One-Electron Energy =                 -99.5696330483900169
    Two-Electron Energy =                  31.4005612631754509
    Total Energy =                        -56.2055552516493435

  Dipole Moment: [D]
     X:     1.2946      Y:    -1.0386      Z:     0.0453     Total:     1.6603

    SAPT Results
  --------------------------------------------------------------------------------------------------------
    Electrostatics                 -1.58169351 [mEh]      -0.99252766 [kcal/mol]      -4.15273575 [kJ/mol]
      Elst10,r                     -1.61815827 [mEh]      -1.01540965 [kcal/mol]      -4.24847396 [kJ/mol]
      Elst12,r                      0.03646476 [mEh]       0.02288198 [kcal/mol]       0.09573822 [kJ/mol]

    Exchange                        1.34207708 [mEh]       0.84216608 [kcal/mol]       3.52362289 [kJ/mol]
      Exch10                        1.13770879 [mEh]       0.71392304 [kcal/mol]       2.98705402 [kJ/mol]
      Exch10(S^2)                   1.13643947 [mEh]       0.71312654 [kcal/mol]       2.98372142 [kJ/mol]
      Exch11(S^2)                  -0.00655479 [mEh]      -0.00411320 [kcal/mol]      -0.01720961 [kJ/mol]
      Exch12(S^2)                   0.21092308 [mEh]       0.13235623 [kcal/mol]       0.55377848 [kJ/mol]

    Induction                      -0.43655879 [mEh]      -0.27394478 [kcal/mol]      -1.14618495 [kJ/mol]
      Ind20,r                      -0.44591198 [mEh]      -0.27981399 [kcal/mol]      -1.17074175 [kJ/mol]
      Ind22                        -0.03310115 [mEh]      -0.02077128 [kcal/mol]      -0.08690706 [kJ/mol]
      Exch-Ind20,r                  0.14218028 [mEh]       0.08921947 [kcal/mol]       0.37329428 [kJ/mol]
      Exch-Ind22                    0.01055439 [mEh]       0.00662298 [kcal/mol]       0.02771056 [kJ/mol]
      delta HF,r (2)               -0.11028034 [mEh]      -0.06920196 [kcal/mol]      -0.28954098 [kJ/mol]

    Dispersion                     -1.22648270 [mEh]      -0.76962951 [kcal/mol]      -3.22012987 [kJ/mol]
      Disp20                       -1.18410639 [mEh]      -0.74303798 [kcal/mol]      -3.10887091 [kJ/mol]
      Disp21                        0.00565320 [mEh]       0.00354744 [kcal/mol]       0.01484248 [kJ/mol]
      Disp22 (SDQ)                  0.01882910 [mEh]       0.01181544 [kcal/mol]       0.04943579 [kJ/mol]
      Disp22 (T)                   -0.15474579 [mEh]      -0.09710445 [kcal/mol]      -0.40628502 [kJ/mol]
      Est. Disp22 (T)              -0.17272702 [mEh]      -0.10838784 [kcal/mol]      -0.45349474 [kJ/mol]
      Exch-Disp20                   0.10586842 [mEh]       0.06643344 [kcal/mol]       0.27795751 [kJ/mol]

  Total HF                         -0.89446152 [mEh]      -0.56128308 [kcal/mol]      -2.34840840 [kJ/mol]
  Total SAPT0                      -1.97269949 [mEh]      -1.23788762 [kcal/mol]      -5.17932180 [kJ/mol]
  Total SAPT2                      -1.75441320 [mEh]      -1.10091090 [kcal/mol]      -4.60621121 [kJ/mol]
  Total SAPT2+                     -1.90265792 [mEh]      -1.19393587 [kcal/mol]      -4.99542768 [kJ/mol]

  Special recipe for scaled SAPT0 (see Manual):
    Electrostatics sSAPT0          -1.61815827 [mEh]      -1.01540965 [kcal/mol]      -4.24847396 [kJ/mol]
    Exchange sSAPT0                 1.13770879 [mEh]       0.71392304 [kcal/mol]       2.98705402 [kJ/mol]
    Induction sSAPT0               -0.41353509 [mEh]      -0.25949719 [kcal/mol]      -1.08573623 [kJ/mol]
    Dispersion sSAPT0              -1.07788283 [mEh]      -0.67638169 [kcal/mol]      -2.82998099 [kJ/mol]
  Total sSAPT0                     -1.97186741 [mEh]      -1.23736548 [kcal/mol]      -5.17713716 [kJ/mol]
  --------------------------------------------------------------------------------------------------------

*** Psi4 exiting successfully. Buy a developer a beer!
