                               Psi4 1.4a2.dev224

  ==> Input File <==

--------------------------------------------------------------------------
#Generated by lconvert.py for sapt job

memory 20 GB

molecule  {
0 1
  C      -1.259210    0.661370   -0.001290
  C      -1.813830   -0.550850    0.000430
  H      -1.873310    1.551250   -0.002520
  H      -0.184860    0.787060   -0.002030
  H      -1.204800   -1.444290    0.003160
  H      -2.886280   -0.685600    0.000960
--
0 1
  N       1.803040   -0.003580   -0.002440
  H       2.693850    0.475680   -0.032150
  H       1.824890   -0.569710    0.836150
  H       1.810810   -0.653880   -0.777910
units angstrom
no_reorient
symmetry c1
}

set {
scf_type DF
basis aug-cc-pvdz
freeze_core True
guess SAD
}
energy('sapt2+')
--------------------------------------------------------------------------

  //              Dimer HF             //
    Molecular point group: c1
  Charge       = 0
  Multiplicity = 1
  Basis Set: AUG-CC-PVDZ
    Blend: AUG-CC-PVDZ
  Basis Set: (AUG-CC-PVDZ AUX)
    Blend: AUG-CC-PVDZ-JKFIT
  @DF-RHF Final Energy:  -134.24544365580689
    Total Energy =                       -134.2454436558068949
  //            Monomer A HF           //
    Molecular point group: c1
  Multiplicity = 1
  Basis Set: AUG-CC-PVDZ
    Blend: AUG-CC-PVDZ
  Basis Set: (AUG-CC-PVDZ AUX)
    Blend: AUG-CC-PVDZ-JKFIT
  @DF-RHF Final Energy:   -78.04363480194742
    Total Energy =                        -78.0436348019474195
  //            Monomer B HF           //
    Molecular point group: c1

    Geometry (in Angstrom), charge = 0, multiplicity = 1:

       Center              X                  Y                   Z               Mass
    ------------   -----------------  -----------------  -----------------  -----------------
      Gh(C)          -1.005166214304     0.645115396619    -0.000876604541    12.000000000000
      Gh(C)          -1.559786214304    -0.567104603381     0.000843395459    12.000000000000
      Gh(H)          -1.619266214304     1.534995396619    -0.002106604541     1.007825032230
      Gh(H)           0.069183785696     0.770805396619    -0.001616604541     1.007825032230
      Gh(H)          -0.950756214304    -1.460544603381     0.003573395459     1.007825032230
      Gh(H)          -2.632236214304    -0.701854603381     0.001373395459     1.007825032230
         N            2.057083785696    -0.019834603381    -0.002026604541    14.003074004430
         H            2.947893785696     0.459425396619    -0.031736604541     1.007825032230
         H            2.078933785696    -0.585964603381     0.836563395459     1.007825032230
         H            2.064853785696    -0.670134603381    -0.777496604541     1.007825032230

  Charge       = 0
  Multiplicity = 1
  Basis Set: AUG-CC-PVDZ
    Blend: AUG-CC-PVDZ
  Basis Set: (AUG-CC-PVDZ AUX)
    Blend: AUG-CC-PVDZ-JKFIT

    Orbital Energies [Eh]
    ---------------------

    Doubly Occupied:

       1A    -15.552055     2A     -1.145811     3A     -0.627847
       4A     -0.627054     5A     -0.431244

  @DF-RHF Final Energy:   -56.20590147059387

   => Energetics <=

    Nuclear Repulsion Energy =             11.9634893564863649
    One-Electron Energy =                 -99.5707564737565889
    Two-Electron Energy =                  31.4013656466763571
    Total Energy =                        -56.2059014705938722

  Dipole Moment: [D]
     X:     1.2925      Y:    -1.0364      Z:     0.0451     Total:     1.6573

    SAPT Results
  --------------------------------------------------------------------------------------------------------
    Electrostatics                 -9.28699485 [mEh]      -5.82767725 [kcal/mol]     -24.38300162 [kJ/mol]
      Elst10,r                     -8.85668154 [mEh]      -5.55765157 [kcal/mol]     -23.25321418 [kJ/mol]
      Elst12,r                     -0.43031331 [mEh]      -0.27002568 [kcal/mol]      -1.12978744 [kJ/mol]

    Exchange                       17.80727181 [mEh]      11.17423176 [kcal/mol]      46.75298569 [kJ/mol]
      Exch10                       16.24556590 [mEh]      10.19424651 [kcal/mol]      42.65272740 [kJ/mol]
      Exch10(S^2)                  16.04047261 [mEh]      10.06554853 [kcal/mol]      42.11425505 [kJ/mol]
      Exch11(S^2)                   0.10352426 [mEh]       0.06496246 [kcal/mol]       0.27180292 [kJ/mol]
      Exch12(S^2)                   1.45818164 [mEh]       0.91502279 [kcal/mol]       3.82845537 [kJ/mol]

    Induction                      -3.46952143 [mEh]      -2.17715757 [kcal/mol]      -9.10922727 [kJ/mol]
      Ind20,r                      -4.67270334 [mEh]      -2.93216562 [kcal/mol]     -12.26818094 [kJ/mol]
      Ind22                        -0.51093238 [mEh]      -0.32061491 [kcal/mol]      -1.34145279 [kJ/mol]
      Exch-Ind20,r                  3.08822043 [mEh]       1.93788758 [kcal/mol]       8.10812163 [kJ/mol]
      Exch-Ind22                    0.33767858 [mEh]       0.21189651 [kcal/mol]       0.88657499 [kJ/mol]
      delta HF,r (2)               -1.71178472 [mEh]      -1.07416113 [kcal/mol]      -4.49429016 [kJ/mol]

    Dispersion                     -4.94236282 [mEh]      -3.10137949 [kcal/mol]     -12.97617179 [kJ/mol]
      Disp20                       -5.57875467 [mEh]      -3.50072141 [kcal/mol]     -14.64701836 [kJ/mol]
      Disp21                        0.17105000 [mEh]       0.10733550 [kcal/mol]       0.44909172 [kJ/mol]
      Disp22 (SDQ)                  0.10439699 [mEh]       0.06551010 [kcal/mol]       0.27409426 [kJ/mol]
      Disp22 (T)                   -0.65633074 [mEh]      -0.41185376 [kcal/mol]      -1.72319613 [kJ/mol]
      Est. Disp22 (T)              -0.73814523 [mEh]      -0.46319312 [kcal/mol]      -1.93800003 [kJ/mol]
      Exch-Disp20                   1.09909009 [mEh]       0.68968944 [kcal/mol]       2.88566063 [kJ/mol]

  Total HF                          4.09261673 [mEh]       2.56815577 [kcal/mol]      10.74516376 [kJ/mol]
  Total SAPT0                      -0.38704785 [mEh]      -0.24287619 [kcal/mol]      -1.01619398 [kJ/mol]
  Total SAPT2                       0.57109094 [mEh]       0.35836498 [kcal/mol]       1.49939907 [kJ/mol]
  Total SAPT2+                      0.10839271 [mEh]       0.06801745 [kcal/mol]       0.28458502 [kJ/mol]

  Special recipe for scaled SAPT0 (see Manual):
    Electrostatics sSAPT0          -8.85668154 [mEh]      -5.55765157 [kcal/mol]     -23.25321418 [kJ/mol]
    Exchange sSAPT0                16.24556590 [mEh]      10.19424651 [kcal/mol]      42.65272740 [kJ/mol]
    Induction sSAPT0               -3.17628873 [mEh]      -1.99315127 [kcal/mol]      -8.33934490 [kJ/mol]
    Dispersion sSAPT0              -4.43696438 [mEh]      -2.78423718 [kcal/mol]     -11.64924838 [kJ/mol]
  Total sSAPT0                     -0.22436874 [mEh]      -0.14079351 [kcal/mol]      -0.58908006 [kJ/mol]
  --------------------------------------------------------------------------------------------------------

*** Psi4 exiting successfully. Buy a developer a beer!
