                               Psi4 1.4a2.dev224

  ==> Input File <==

--------------------------------------------------------------------------
#Generated by lconvert.py for sapt job

memory 20 GB

molecule  {
0 1
  C      -1.259210    0.661370   -0.001290
  C      -1.813830   -0.550850    0.000430
  H      -1.873310    1.551250   -0.002520
  H      -0.184860    0.787060   -0.002030
  H      -1.204800   -1.444290    0.003160
  H      -2.886280   -0.685600    0.000960
--
0 1
  N       2.086640   -0.008540   -0.002610
  H       2.977450    0.470720   -0.032320
  H       2.108490   -0.574670    0.835980
  H       2.094410   -0.658830   -0.778090
units angstrom
no_reorient
symmetry c1
}

set {
scf_type DF
basis aug-cc-pvdz
freeze_core True
guess SAD
}
energy('sapt2+')
--------------------------------------------------------------------------

  //              Dimer HF             //
    Molecular point group: c1
  Charge       = 0
  Multiplicity = 1
  Basis Set: AUG-CC-PVDZ
    Blend: AUG-CC-PVDZ
  Basis Set: (AUG-CC-PVDZ AUX)
    Blend: AUG-CC-PVDZ-JKFIT
  @DF-RHF Final Energy:  -134.24884622711616
    Total Energy =                       -134.2488462271161609
  //            Monomer A HF           //
    Molecular point group: c1
  Multiplicity = 1
  Basis Set: AUG-CC-PVDZ
    Blend: AUG-CC-PVDZ
  Basis Set: (AUG-CC-PVDZ AUX)
    Blend: AUG-CC-PVDZ-JKFIT
  @DF-RHF Final Energy:   -78.04361410097812
    Total Energy =                        -78.0436141009781181
  //            Monomer B HF           //
    Molecular point group: c1

    Geometry (in Angstrom), charge = 0, multiplicity = 1:

       Center              X                  Y                   Z               Mass
    ------------   -----------------  -----------------  -----------------  -----------------
      Gh(C)          -1.112333542696     0.646989467547    -0.000812140932    12.000000000000
      Gh(C)          -1.666953542696    -0.565230532453     0.000907859068    12.000000000000
      Gh(H)          -1.726433542696     1.536869467547    -0.002042140932     1.007825032230
      Gh(H)          -0.037983542696     0.772679467547    -0.001552140932     1.007825032230
      Gh(H)          -1.057923542696    -1.458670532453     0.003637859068     1.007825032230
      Gh(H)          -2.739403542696    -0.699980532453     0.001437859068     1.007825032230
         N            2.233516457304    -0.022920532453    -0.002132140932    14.003074004430
         H            3.124326457304     0.456339467547    -0.031842140932     1.007825032230
         H            2.255366457304    -0.589050532453     0.836457859068     1.007825032230
         H            2.241286457304    -0.673210532453    -0.777612140932     1.007825032230

  Charge       = 0
  Multiplicity = 1
  Basis Set: AUG-CC-PVDZ
    Blend: AUG-CC-PVDZ
  Basis Set: (AUG-CC-PVDZ AUX)
    Blend: AUG-CC-PVDZ-JKFIT

    Orbital Energies [Eh]
    ---------------------

    Doubly Occupied:

       1A    -15.552078     2A     -1.145795     3A     -0.627869
       4A     -0.627070     5A     -0.431277

  @DF-RHF Final Energy:   -56.20576836769560

   => Energetics <=

    Nuclear Repulsion Energy =             11.9634834474607405
    One-Electron Energy =                 -99.5703247600228565
    Two-Electron Energy =                  31.4010729448665167
    Total Energy =                        -56.2057683676955975

  Dipole Moment: [D]
     X:     1.2926      Y:    -1.0370      Z:     0.0451     Total:     1.6578

    SAPT Results
  --------------------------------------------------------------------------------------------------------
    Electrostatics                 -4.77953394 [mEh]      -2.99920282 [kcal/mol]     -12.54866462 [kJ/mol]
      Elst10,r                     -4.62201717 [mEh]      -2.90035957 [kcal/mol]     -12.13510442 [kJ/mol]
      Elst12,r                     -0.15751676 [mEh]      -0.09884326 [kcal/mol]      -0.41356020 [kJ/mol]

    Exchange                        7.55802516 [mEh]       4.74273239 [kcal/mol]      19.84359232 [kJ/mol]
      Exch10                        6.72420490 [mEh]       4.21950228 [kcal/mol]      17.65439754 [kJ/mol]
      Exch10(S^2)                   6.68594579 [mEh]       4.19549432 [kcal/mol]      17.55394825 [kJ/mol]
      Exch11(S^2)                   0.02082853 [mEh]       0.01307010 [kcal/mol]       0.05468531 [kJ/mol]
      Exch12(S^2)                   0.81299172 [mEh]       0.51016001 [kcal/mol]       2.13450947 [kJ/mol]

    Induction                      -1.65800145 [mEh]      -1.04041162 [kcal/mol]      -4.35308222 [kJ/mol]
      Ind20,r                      -1.95850110 [mEh]      -1.22897800 [kcal/mol]      -5.14204394 [kJ/mol]
      Ind22                        -0.20876987 [mEh]      -0.13100507 [kcal/mol]      -0.54812522 [kJ/mol]
      Exch-Ind20,r                  1.09491684 [mEh]       0.68707069 [kcal/mol]       2.87470376 [kJ/mol]
      Exch-Ind22                    0.11671459 [mEh]       0.07323951 [kcal/mol]       0.30643410 [kJ/mol]
      delta HF,r (2)               -0.70236190 [mEh]      -0.44073875 [kcal/mol]      -1.84405092 [kJ/mol]

    Dispersion                     -3.05382550 [mEh]      -1.91630443 [kcal/mol]      -8.01781775 [kJ/mol]
      Disp20                       -3.22512272 [mEh]      -2.02379506 [kcal/mol]      -8.46755853 [kJ/mol]
      Disp21                        0.05184804 [mEh]       0.03253514 [kcal/mol]       0.13612702 [kJ/mol]
      Disp22 (SDQ)                  0.05615628 [mEh]       0.03523860 [kcal/mol]       0.14743828 [kJ/mol]
      Disp22 (T)                   -0.39681366 [mEh]      -0.24900433 [kcal/mol]      -1.04183412 [kJ/mol]
      Est. Disp22 (T)              -0.44886593 [mEh]      -0.28166762 [kcal/mol]      -1.17849733 [kJ/mol]
      Exch-Disp20                   0.51215882 [mEh]       0.32138451 [kcal/mol]       1.34467281 [kJ/mol]

  Total HF                          0.53624156 [mEh]       0.33649666 [kcal/mol]       1.40790202 [kJ/mol]
  Total SAPT0                      -2.17672234 [mEh]      -1.36591389 [kcal/mol]      -5.71498371 [kJ/mol]
  Total SAPT2                      -1.59247413 [mEh]      -0.99929260 [kcal/mol]      -4.18104024 [kJ/mol]
  Total SAPT2+                     -1.93333573 [mEh]      -1.21318649 [kcal/mol]      -5.07597227 [kJ/mol]

  Special recipe for scaled SAPT0 (see Manual):
    Electrostatics sSAPT0          -4.62201717 [mEh]      -2.90035957 [kcal/mol]     -12.13510442 [kJ/mol]
    Exchange sSAPT0                 6.72420490 [mEh]       4.21950228 [kcal/mol]      17.65439754 [kJ/mol]
    Induction sSAPT0               -1.54704202 [mEh]      -0.97078352 [kcal/mol]      -4.06175825 [kJ/mol]
    Dispersion sSAPT0              -2.70412128 [mEh]      -1.69686172 [kcal/mol]      -7.09966944 [kJ/mol]
  Total sSAPT0                     -2.14897557 [mEh]      -1.34850253 [kcal/mol]      -5.64213457 [kJ/mol]
  --------------------------------------------------------------------------------------------------------

*** Psi4 exiting successfully. Buy a developer a beer!
