                               Psi4 1.4a2.dev224

  ==> Input File <==

--------------------------------------------------------------------------
#Generated by lconvert.py for cbs job

memory 50 GB

molecule  {
0 1
  O      -0.702196   -0.056060    0.009942
  H      -1.022193    0.846776   -0.011489
  H       0.257521    0.042121    0.005219
--
0 1
  O       1.665473    0.031075    0.001921
  H       2.042094   -0.407306    0.768046
  H       2.037737   -0.445138   -0.743481
units angstrom
no_reorient
symmetry c1
}

set {
scf_type DF
mp2_type DF
e_convergence 7
reference rhf
}

energy(cbs, corl_wfn='mp2', corl_basis='aug-cc-pv[tq]z', delta_wfn='ccsd(t)', delta_basis='aug-cc-pv[dt]z', bsse_type='cp')
--------------------------------------------------------------------------

    Molecular point group: c1
  Charge       = 0
  Multiplicity = 1
  Basis Set: AUG-CC-PVQZ
    Blend: AUG-CC-PVQZ
  Basis Set: (AUG-CC-PVQZ AUX)
    Blend: AUG-CC-PVQZ-JKFIT
  @DF-RHF Final Energy:   -76.06577370279793
    Total Energy =                        -76.0657737027979266
  Basis Set: (AUG-CC-PVQZ AUX)
    Blend: AUG-CC-PVQZ-RI
	 Reference Energy          =     -76.0657737027979266 [Eh]
	 Singles Energy            =      -0.0000000000000000 [Eh]
	 Same-Spin Energy          =      -0.0727157811775870 [Eh]
	 Opposite-Spin Energy      =      -0.2442472768728204 [Eh]
	 Correlation Energy        =      -0.3169630580504074 [Eh]
	 Total Energy              =     -76.3827367608483314 [Eh]
	 SCS Total Energy          =     -76.3831090287711731 [Eh]
    Molecular point group: c1
  Basis Set: AUG-CC-PVDZ
    Blend: AUG-CC-PVDZ
  Basis Set: (AUG-CC-PVDZ AUX)
    Blend: AUG-CC-PVDZ-JKFIT
  @DF-RHF Final Energy:   -76.04122456522832
    Total Energy =                        -76.0412245652283190
      * MP2 total energy                      =  -76.263312873029932
      * CCSD total energy                     =  -76.270810687994000
      * CCSD(T) total energy                  =  -76.276064355651641
  @DF-RHF Final Energy:   -76.06039222577765
    Total Energy =                        -76.0603922257776333
      * MP2 total energy                      =  -76.344119029551010
      * CCSD total energy                     =  -76.348708809394282
      * CCSD(T) total energy                  =  -76.357497959503448
  @DF-RHF Final Energy:   -76.06582754827166
    Total Energy =                        -76.0658275482716562
  @DF-RHF Final Energy:   -76.04173234411834
    Total Energy =                        -76.0417323441183441
      * MP2 total energy                      =  -76.265611420487346
      * CCSD total energy                     =  -76.273018744073966
      * CCSD(T) total energy                  =  -76.278489563384568
  @DF-RHF Final Energy:   -76.06054915275834
    Total Energy =                        -76.0605491527583411
      * MP2 total energy                      =  -76.345733150378223
      * CCSD total energy                     =  -76.350252892819015
      * CCSD(T) total energy                  =  -76.359102277720524
  @DF-RHF Final Energy:   -76.06561016508630
    Total Energy =                        -76.0656101650862979
  @DF-RHF Final Energy:   -76.04130573708559
    Total Energy =                        -76.0413057370855938
      * MP2 total energy                      =  -76.264439766315391
      * CCSD total energy                     =  -76.271856876426085
      * CCSD(T) total energy                  =  -76.277228175323884
  @DF-RHF Final Energy:   -76.06031902868985
    Total Energy =                        -76.0603190286898467
      * MP2 total energy                      =  -76.345348230156077
      * CCSD total energy                     =  -76.349923608145417
      * CCSD(T) total energy                  =  -76.358766387478170
  @DF-RHF Final Energy:   -76.06558247163699
    Total Energy =                        -76.0655824716369864
  @DF-RHF Final Energy:   -76.04106112376161
    Total Energy =                        -76.0410611237616081
      * MP2 total energy                      =  -76.263319646177507
      * CCSD total energy                     =  -76.270805727166561
      * CCSD(T) total energy                  =  -76.276074177412596
  @DF-RHF Final Energy:   -76.06020939194178
    Total Energy =                        -76.0602093919417825
      * MP2 total energy                      =  -76.344082211475794
      * CCSD total energy                     =  -76.348651807956045
      * CCSD(T) total energy                  =  -76.357460875456511
  @DF-RHF Final Energy:  -152.11842362266702
    Total Energy =                       -152.1184236226670237
	 Opposite-Spin Energy      =      -0.4918192828946140 [Eh]
	 Correlation Energy        =      -0.6412311063147488 [Eh]
	 Total Energy              =    -152.7596547289817863 [Eh]

	 ================> DF-SCS-MP2 Energies <==================
	-----------------------------------------------------------
	 SCS Same-Spin Scale       =       0.3333333333333333 [-]
	 SCS Opposite-Spin Scale   =       1.2000000000000000 [-]
	 SCS Same-Spin Energy      =      -0.0498039411400449 [Eh]
	 SCS Opposite-Spin Energy  =      -0.5901831394735367 [Eh]
	 SCS Correlation Energy    =      -0.6399870806135817 [Eh]
	 SCS Total Energy          =    -152.7584107032806173 [Eh]
	-----------------------------------------------------------

  Multiplicity = 1
  Basis Set: AUG-CC-PVDZ
    Blend: AUG-CC-PVDZ
  Basis Set: (AUG-CC-PVDZ AUX)
    Blend: AUG-CC-PVDZ-JKFIT
  @DF-RHF Final Energy:  -152.06925899365120
    Total Energy =                       -152.0692589936512036
      * MP2 total energy                      = -152.519573167837990
      * CCSD total energy                     = -152.533037642138538
      * CCSD(T) total energy                  = -152.544475795752817
    Molecular point group: c1

    Geometry (in Angstrom), charge = 0, multiplicity = 1:

       Center              X                  Y                   Z               Mass
    ------------   -----------------  -----------------  -----------------  -----------------
         O           -1.222685888156    -0.045985504774     0.004162452419    15.994914619570
         H           -1.542682888156     0.856850495226    -0.017268547581     1.007825032230
         H           -0.262968888156     0.052195495226    -0.000560547581     1.007825032230
         O            1.144983111844     0.041149495226    -0.003858547581    15.994914619570
         H            1.521604111844    -0.397231504774     0.762266452419     1.007825032230
         H            1.517247111844    -0.435063504774    -0.749260547581     1.007825032230

  Charge       = 0
  Multiplicity = 1
  Basis Set: AUG-CC-PVTZ
    Blend: AUG-CC-PVTZ
  Basis Set: (AUG-CC-PVTZ AUX)
    Blend: AUG-CC-PVTZ-JKFIT

    Orbital Energies [Eh]
    ---------------------

    Doubly Occupied:

       1A    -20.608453     2A    -20.499852     3A     -1.411889
       4A     -1.296573     5A     -0.762806     6A     -0.726732
       7A     -0.621613     8A     -0.559244     9A     -0.503823
      10A     -0.454220

  @DF-RHF Final Energy:  -152.10780052399036

   => Energetics <=

    Nuclear Repulsion Energy =             40.9317782152660286
    One-Electron Energy =                -291.1887480523849945
    Two-Electron Energy =                  98.1491693131285814
    Total Energy =                       -152.1078005239903632

  Dipole Moment: [D]
     X:     3.5542      Y:     0.0234      Z:    -0.0091     Total:     3.5543

      * MP2 total energy                      = -152.683101012357326
      * CCSD total energy                     = -152.690986741807222
      * CCSD(T) total energy                  = -152.709484257419916
*** Psi4 exiting successfully. Buy a developer a beer!
