                               Psi4 1.4a2.dev224

  ==> Input File <==

--------------------------------------------------------------------------
#Generated by lconvert.py for cbs job

memory 50 GB

molecule  {
0 1
  O      -0.702196   -0.056060    0.009942
  H      -1.022193    0.846776   -0.011489
  H       0.257521    0.042121    0.005219
--
0 1
  O       2.268881    0.026340    0.000508
  H       2.645502   -0.412040    0.766632
  H       2.641145   -0.449873   -0.744894
units angstrom
no_reorient
symmetry c1
}

set {
scf_type DF
mp2_type DF
e_convergence 7
reference rhf
}

energy(cbs, corl_wfn='mp2', corl_basis='aug-cc-pv[tq]z', delta_wfn='ccsd(t)', delta_basis='aug-cc-pv[dt]z', bsse_type='cp')
--------------------------------------------------------------------------

    Molecular point group: c1
  Charge       = 0
  Multiplicity = 1
  Basis Set: AUG-CC-PVQZ
    Blend: AUG-CC-PVQZ
  Basis Set: (AUG-CC-PVQZ AUX)
    Blend: AUG-CC-PVQZ-JKFIT
  @DF-RHF Final Energy:   -76.06577375210219
    Total Energy =                        -76.0657737521021886
  Basis Set: (AUG-CC-PVQZ AUX)
    Blend: AUG-CC-PVQZ-RI
	 Reference Energy          =     -76.0657737521021886 [Eh]
	 Singles Energy            =      -0.0000000000000000 [Eh]
	 Same-Spin Energy          =      -0.0727157711846055 [Eh]
	 Opposite-Spin Energy      =      -0.2442472423861490 [Eh]
	 Correlation Energy        =      -0.3169630135707545 [Eh]
	 Total Energy              =     -76.3827367656729450 [Eh]
	 SCS Total Energy          =     -76.3831090333604408 [Eh]
    Molecular point group: c1
  Basis Set: AUG-CC-PVDZ
    Blend: AUG-CC-PVDZ
  Basis Set: (AUG-CC-PVDZ AUX)
    Blend: AUG-CC-PVDZ-JKFIT
  @DF-RHF Final Energy:   -76.04122460555982
    Total Energy =                        -76.0412246055598189
      * MP2 total energy                      =  -76.263312859178328
      * CCSD total energy                     =  -76.270810677379913
      * CCSD(T) total energy                  =  -76.276064340372287
  @DF-RHF Final Energy:   -76.06039227187995
    Total Energy =                        -76.0603922718799481
      * MP2 total energy                      =  -76.344119031261002
      * CCSD total energy                     =  -76.348708817296000
      * CCSD(T) total energy                  =  -76.357497960983096
  @DF-RHF Final Energy:   -76.06580460696669
    Total Energy =                        -76.0658046069666938
  @DF-RHF Final Energy:   -76.04149889795121
    Total Energy =                        -76.0414988979512145
      * MP2 total energy                      =  -76.264232999431400
      * CCSD total energy                     =  -76.271702842863974
      * CCSD(T) total energy                  =  -76.277058336520227
  @DF-RHF Final Energy:   -76.06046084363460
    Total Energy =                        -76.0604608436346012
      * MP2 total energy                      =  -76.344766493714317
      * CCSD total energy                     =  -76.349341337463514
      * CCSD(T) total energy                  =  -76.358158602856662
  @DF-RHF Final Energy:   -76.06559716682972
    Total Energy =                        -76.0655971668297042
  @DF-RHF Final Energy:   -76.04113763090625
    Total Energy =                        -76.0411376309062632
      * MP2 total energy                      =  -76.263736565815492
      * CCSD total energy                     =  -76.271199951003297
      * CCSD(T) total energy                  =  -76.276519596628745
  @DF-RHF Final Energy:   -76.06025013704269
    Total Energy =                        -76.0602501370426864
      * MP2 total energy                      =  -76.344791227033923
      * CCSD total energy                     =  -76.349371696361374
      * CCSD(T) total energy                  =  -76.358199505513113
  @DF-RHF Final Energy:   -76.06558247165010
    Total Energy =                        -76.0655824716501030
  @DF-RHF Final Energy:   -76.04106112376155
    Total Energy =                        -76.0410611237615512
      * MP2 total energy                      =  -76.263319646177777
      * CCSD total energy                     =  -76.270805727166859
      * CCSD(T) total energy                  =  -76.276074177412895
  @DF-RHF Final Energy:   -76.06020939194073
    Total Energy =                        -76.0602093919407309
      * MP2 total energy                      =  -76.344082211475751
      * CCSD total energy                     =  -76.348651807955989
      * CCSD(T) total energy                  =  -76.357460875456454
  @DF-RHF Final Energy:  -152.13739297151994
    Total Energy =                       -152.1373929715199438
	 Opposite-Spin Energy      =      -0.4895791642938001 [Eh]
	 Correlation Energy        =      -0.6362688634810366 [Eh]
	 Total Energy              =    -152.7736618350009792 [Eh]

	 ================> DF-SCS-MP2 Energies <==================
	-----------------------------------------------------------
	 SCS Same-Spin Scale       =       0.3333333333333333 [-]
	 SCS Opposite-Spin Scale   =       1.2000000000000000 [-]
	 SCS Same-Spin Energy      =      -0.0488965663957455 [Eh]
	 SCS Opposite-Spin Energy  =      -0.5874949971525601 [Eh]
	 SCS Correlation Energy    =      -0.6363915635483056 [Eh]
	 SCS Total Energy          =    -152.7737845350682448 [Eh]
	-----------------------------------------------------------

  Multiplicity = 1
  Basis Set: AUG-CC-PVDZ
    Blend: AUG-CC-PVDZ
  Basis Set: (AUG-CC-PVDZ AUX)
    Blend: AUG-CC-PVDZ-JKFIT
  @DF-RHF Final Energy:  -152.08860717235311
    Total Energy =                       -152.0886071723531074
      * MP2 total energy                      = -152.535018722007294
      * CCSD total energy                     = -152.549664235205768
      * CCSD(T) total energy                  = -152.560583171044328
    Molecular point group: c1

    Geometry (in Angstrom), charge = 0, multiplicity = 1:

       Center              X                  Y                   Z               Mass
    ------------   -----------------  -----------------  -----------------  -----------------
         O           -1.524389888156    -0.043618032752     0.004868980398    15.994914619570
         H           -1.844386888156     0.859217967248    -0.016562019602     1.007825032230
         H           -0.564672888156     0.054562967248     0.000145980398     1.007825032230
         O            1.446687111844     0.038781967248    -0.004565019602    15.994914619570
         H            1.823308111844    -0.399598032752     0.761558980398     1.007825032230
         H            1.818951111844    -0.437431032752    -0.749967019602     1.007825032230

  Charge       = 0
  Multiplicity = 1
  Basis Set: AUG-CC-PVTZ
    Blend: AUG-CC-PVTZ
  Basis Set: (AUG-CC-PVTZ AUX)
    Blend: AUG-CC-PVTZ-JKFIT

    Orbital Energies [Eh]
    ---------------------

    Doubly Occupied:

       1A    -20.591396     2A    -20.537605     3A     -1.378700
       4A     -1.323958     5A     -0.739625     6A     -0.692378
       7A     -0.614468     8A     -0.560090     9A     -0.532107
      10A     -0.482588

  @DF-RHF Final Energy:  -152.12664798357048

   => Energetics <=

    Nuclear Repulsion Energy =             36.2137679096402607
    One-Electron Energy =                -281.7749955077136406
    Two-Electron Energy =                  93.4345796145029084
    Total Energy =                       -152.1266479835704786

  Dipole Moment: [D]
     X:     2.8588      Y:     0.0966      Z:    -0.0092     Total:     2.8604

      * MP2 total energy                      = -152.697065298281871
      * CCSD total energy                     = -152.705958718011772
      * CCSD(T) total energy                  = -152.723921158051581
*** Psi4 exiting successfully. Buy a developer a beer!
