                               Psi4 1.4a2.dev224

  ==> Input File <==

--------------------------------------------------------------------------
#Generated by lconvert.py for cbs job

memory 50 GB

molecule  {
0 1
  O      -0.525330   -0.050971   -0.314517
  H      -0.942007    0.747902    0.011253
  H       0.403697    0.059786   -0.073568
--
0 1
  O       2.360343    0.045174    0.075181
  H       2.728326   -0.526903    0.752710
  C       2.825348   -0.426455   -1.186978
  H       2.394531    0.224638   -1.940092
  H       3.911312   -0.375663   -1.261290
  H       2.497005   -1.446325   -1.386058
units angstrom
no_reorient
symmetry c1
}

set {
scf_type DF
mp2_type DF
e_convergence 7
reference rhf
}

energy(cbs, corl_wfn='mp2', corl_basis='aug-cc-pv[tq]z', delta_wfn='ccsd(t)', delta_basis='aug-cc-pv[dt]z', bsse_type='cp')
--------------------------------------------------------------------------

    Molecular point group: c1
  Charge       = 0
  Multiplicity = 1
  Basis Set: AUG-CC-PVQZ
    Blend: AUG-CC-PVQZ
  Basis Set: (AUG-CC-PVQZ AUX)
    Blend: AUG-CC-PVQZ-JKFIT
  @DF-RHF Final Energy:  -115.09951945214388
    Total Energy =                       -115.0995194521438805
  Basis Set: (AUG-CC-PVQZ AUX)
    Blend: AUG-CC-PVQZ-RI
	 Reference Energy          =    -115.0995194521438805 [Eh]
	 Singles Energy            =      -0.0000000000000000 [Eh]
	 Same-Spin Energy          =      -0.1124851415194742 [Eh]
	 Opposite-Spin Energy      =      -0.4106626646363567 [Eh]
	 Correlation Energy        =      -0.5231478061558309 [Eh]
	 Total Energy              =    -115.6226672582997139 [Eh]
	 SCS Total Energy          =    -115.6298096968806703 [Eh]
    Molecular point group: c1
  Basis Set: AUG-CC-PVDZ
    Blend: AUG-CC-PVDZ
  Basis Set: (AUG-CC-PVDZ AUX)
    Blend: AUG-CC-PVDZ-JKFIT
  @DF-RHF Final Energy:  -115.06137581321087
    Total Energy =                       -115.0613758132108728
      * MP2 total energy                      = -115.427158161820955
      * CCSD total energy                     = -115.449982981128400
      * CCSD(T) total energy                  = -115.460501973243765
  @DF-RHF Final Energy:  -115.09200797830125
    Total Energy =                       -115.0920079783012540
      * MP2 total energy                      = -115.562549916051481
      * CCSD total energy                     = -115.580663816996605
      * CCSD(T) total energy                  = -115.596870418640037
  @DF-RHF Final Energy:  -115.09955402894624
    Total Energy =                       -115.0995540289462440
  @DF-RHF Final Energy:  -115.06169221973754
    Total Energy =                       -115.0616922197375374
      * MP2 total energy                      = -115.428193541251147
      * CCSD total energy                     = -115.450981806699119
      * CCSD(T) total energy                  = -115.461594497983867
  @DF-RHF Final Energy:  -115.09208355755048
    Total Energy =                       -115.0920835575504810
      * MP2 total energy                      = -115.563378030660019
      * CCSD total energy                     = -115.581473274476920
      * CCSD(T) total energy                  = -115.597709597064878
  @DF-RHF Final Energy:   -76.06554477895905
    Total Energy =                        -76.0655447789590369
  @DF-RHF Final Energy:   -76.04117976746588
    Total Energy =                        -76.0411797674658771
      * MP2 total energy                      =  -76.263988601152278
      * CCSD total energy                     =  -76.271440256903844
      * CCSD(T) total energy                  =  -76.276787707897000
  @DF-RHF Final Energy:   -76.06021420861713
    Total Energy =                        -76.0602142086171256
      * MP2 total energy                      =  -76.344918392908781
      * CCSD total energy                     =  -76.349489113134510
      * CCSD(T) total energy                  =  -76.358328959094536
  @DF-RHF Final Energy:   -76.06552216123674
    Total Energy =                        -76.0655221612367427
  @DF-RHF Final Energy:   -76.04100903684817
    Total Energy =                        -76.0410090368481661
      * MP2 total energy                      =  -76.263320886575443
      * CCSD total energy                     =  -76.270804486046060
      * CCSD(T) total energy                  =  -76.276077542239690
  @DF-RHF Final Energy:   -76.06015263291199
    Total Energy =                        -76.0601526329119793
      * MP2 total energy                      =  -76.344067113000719
      * CCSD total energy                     =  -76.348631084396160
      * CCSD(T) total energy                  =  -76.357446593439150
  @DF-RHF Final Energy:  -191.17120855267720
    Total Energy =                       -191.1712085526772000
	 Opposite-Spin Energy      =      -0.6566658592111243 [Eh]
	 Correlation Energy        =      -0.8436585911999029 [Eh]
	 Total Energy              =    -192.0148671438770975 [Eh]

	 ================> DF-SCS-MP2 Energies <==================
	-----------------------------------------------------------
	 SCS Same-Spin Scale       =       0.3333333333333333 [-]
	 SCS Opposite-Spin Scale   =       1.2000000000000000 [-]
	 SCS Same-Spin Energy      =      -0.0623309106629262 [Eh]
	 SCS Opposite-Spin Energy  =      -0.7879990310533491 [Eh]
	 SCS Correlation Energy    =      -0.8503299417162753 [Eh]
	 SCS Total Energy          =    -192.0215384943934680 [Eh]
	-----------------------------------------------------------

  Multiplicity = 1
  Basis Set: AUG-CC-PVDZ
    Blend: AUG-CC-PVDZ
  Basis Set: (AUG-CC-PVDZ AUX)
    Blend: AUG-CC-PVDZ-JKFIT
  @DF-RHF Final Energy:  -191.10898891744100
    Total Energy =                       -191.1089889174409961
      * MP2 total energy                      = -191.700235051432259
      * CCSD total energy                     = -191.729978969160470
      * CCSD(T) total energy                  = -191.746296257523653
    Molecular point group: c1

    Geometry (in Angstrom), charge = 0, multiplicity = 1:

       Center              X                  Y                   Z               Mass
    ------------   -----------------  -----------------  -----------------  -----------------
         O           -2.010915935365     0.079673892772     0.125148274976    15.994914619570
         H           -2.427592935365     0.878546892772     0.450918274976     1.007825032230
         H           -1.081888935365     0.190430892772     0.366097274976     1.007825032230
         O            0.874757064635     0.175818892772     0.514846274976    15.994914619570
         H            1.242740064635    -0.396258107228     1.192375274976     1.007825032230
         C            1.339762064635    -0.295810107228    -0.747312725024    12.000000000000
         H            0.908945064635     0.355282892772    -1.500426725024     1.007825032230
         H            2.425726064635    -0.245018107228    -0.821624725024     1.007825032230
         H            1.011419064635    -1.315680107228    -0.946392725024     1.007825032230

  Charge       = 0
  Multiplicity = 1
  Basis Set: AUG-CC-PVTZ
    Blend: AUG-CC-PVTZ
  Basis Set: (AUG-CC-PVTZ AUX)
    Blend: AUG-CC-PVTZ-JKFIT

    Orbital Energies [Eh]
    ---------------------

    Doubly Occupied:

       1A    -20.580296     2A    -20.536937     3A    -11.281439
       4A     -1.379367     5A     -1.323268     6A     -0.940010
       7A     -0.715099     8A     -0.688471     9A     -0.633031
      10A     -0.609976    11A     -0.560065    12A     -0.520820
      13A     -0.482371    14A     -0.470948

  @DF-RHF Final Energy:  -191.15834653996595

   => Energetics <=

    Nuclear Repulsion Energy =             79.5656534795496384
    One-Electron Energy =                -420.0038035463950337
    Two-Electron Energy =                 149.2798035268794763
    Total Energy =                       -191.1583465399659474

  Dipole Moment: [D]
     X:     2.5119      Y:     0.0179      Z:     0.5557     Total:     2.5727

      * MP2 total energy                      = -191.916909559059206
      * CCSD total energy                     = -191.939097824055978
      * CCSD(T) total energy                  = -191.964629721217364
*** Psi4 exiting successfully. Buy a developer a beer!
