                               Psi4 1.4a2.dev224

  ==> Input File <==

--------------------------------------------------------------------------
#Generated by lconvert.py for cbs job

memory 50 GB

molecule  {
0 1
  O      -0.525330   -0.050971   -0.314517
  H      -0.942007    0.747902    0.011253
  H       0.403697    0.059786   -0.073568
--
0 1
  O       1.773349    0.049558    0.030556
  H       2.141332   -0.522520    0.708085
  C       2.238354   -0.422072   -1.231603
  H       1.807537    0.229022   -1.984717
  H       3.324318   -0.371279   -1.305915
  H       1.910011   -1.441942   -1.430683
units angstrom
no_reorient
symmetry c1
}

set {
scf_type DF
mp2_type DF
e_convergence 7
reference rhf
}

energy(cbs, corl_wfn='mp2', corl_basis='aug-cc-pv[tq]z', delta_wfn='ccsd(t)', delta_basis='aug-cc-pv[dt]z', bsse_type='cp')
--------------------------------------------------------------------------

    Molecular point group: c1
  Charge       = 0
  Multiplicity = 1
  Basis Set: AUG-CC-PVQZ
    Blend: AUG-CC-PVQZ
  Basis Set: (AUG-CC-PVQZ AUX)
    Blend: AUG-CC-PVQZ-JKFIT
  @DF-RHF Final Energy:  -115.09951940099340
    Total Energy =                       -115.0995194009934011
  Basis Set: (AUG-CC-PVQZ AUX)
    Blend: AUG-CC-PVQZ-RI
	 Reference Energy          =    -115.0995194009934011 [Eh]
	 Singles Energy            =      -0.0000000000000000 [Eh]
	 Same-Spin Energy          =      -0.1124851493914105 [Eh]
	 Opposite-Spin Energy      =      -0.4106626982801998 [Eh]
	 Correlation Energy        =      -0.5231478476716103 [Eh]
	 Total Energy              =    -115.6226672486650102 [Eh]
	 SCS Total Energy          =    -115.6298096887267803 [Eh]
    Molecular point group: c1
  Basis Set: AUG-CC-PVDZ
    Blend: AUG-CC-PVDZ
  Basis Set: (AUG-CC-PVDZ AUX)
    Blend: AUG-CC-PVDZ-JKFIT
  @DF-RHF Final Energy:  -115.06137577711787
    Total Energy =                       -115.0613757771178740
      * MP2 total energy                      = -115.427158180368508
      * CCSD total energy                     = -115.449982997656605
      * CCSD(T) total energy                  = -115.460501996248865
  @DF-RHF Final Energy:  -115.09200792973222
    Total Energy =                       -115.0920079297322189
      * MP2 total energy                      = -115.562549910556356
      * CCSD total energy                     = -115.580663806283269
      * CCSD(T) total energy                  = -115.596870415936493
  @DF-RHF Final Energy:  -115.09957842059337
    Total Energy =                       -115.0995784205933745
  @DF-RHF Final Energy:  -115.06189559475975
    Total Energy =                       -115.0618955947597470
      * MP2 total energy                      = -115.429726737176111
      * CCSD total energy                     = -115.452449895436288
      * CCSD(T) total energy                  = -115.463189457704360
  @DF-RHF Final Energy:  -115.09218457979105
    Total Energy =                       -115.0921845797910521
      * MP2 total energy                      = -115.564624991724273
      * CCSD total energy                     = -115.582651416658251
      * CCSD(T) total energy                  = -115.598930690673242
  @DF-RHF Final Energy:   -76.06556090230224
    Total Energy =                        -76.0655609023022237
  @DF-RHF Final Energy:   -76.04142516028845
    Total Energy =                        -76.0414251602884548
      * MP2 total energy                      =  -76.264868005425143
      * CCSD total energy                     =  -76.272267836164474
      * CCSD(T) total energy                  =  -76.277679932564965
  @DF-RHF Final Energy:   -76.06028349940055
    Total Energy =                        -76.0602834994005548
      * MP2 total energy                      =  -76.345603510851149
      * CCSD total energy                     =  -76.350165091983712
      * CCSD(T) total energy                  =  -76.359024580594237
  @DF-RHF Final Energy:   -76.06552216124426
    Total Energy =                        -76.0655221612442745
  @DF-RHF Final Energy:   -76.04100903685426
    Total Energy =                        -76.0410090368542626
      * MP2 total energy                      =  -76.263320886575329
      * CCSD total energy                     =  -76.270804486045947
      * CCSD(T) total energy                  =  -76.276077542239577
  @DF-RHF Final Energy:   -76.06015263290774
    Total Energy =                        -76.0601526329077444
      * MP2 total energy                      =  -76.344067113000989
      * CCSD total energy                     =  -76.348631084396445
      * CCSD(T) total energy                  =  -76.357446593439420
  @DF-RHF Final Energy:  -191.14981078388061
    Total Energy =                       -191.1498107838806106
	 Opposite-Spin Energy      =      -0.6594506673620232 [Eh]
	 Correlation Energy        =      -0.8496974207649748 [Eh]
	 Total Energy              =    -191.9995082046455934 [Eh]

	 ================> DF-SCS-MP2 Energies <==================
	-----------------------------------------------------------
	 SCS Same-Spin Scale       =       0.3333333333333333 [-]
	 SCS Opposite-Spin Scale   =       1.2000000000000000 [-]
	 SCS Same-Spin Energy      =      -0.0634155844676505 [Eh]
	 SCS Opposite-Spin Energy  =      -0.7913408008344278 [Eh]
	 SCS Correlation Energy    =      -0.8547563853020783 [Eh]
	 SCS Total Energy          =    -192.0045671691826783 [Eh]
	-----------------------------------------------------------

  Multiplicity = 1
  Basis Set: AUG-CC-PVDZ
    Blend: AUG-CC-PVDZ
  Basis Set: (AUG-CC-PVDZ AUX)
    Blend: AUG-CC-PVDZ-JKFIT
  @DF-RHF Final Energy:  -191.08726029883897
    Total Energy =                       -191.0872602988389701
      * MP2 total energy                      = -191.683377028741972
      * CCSD total energy                     = -191.711667219132153
      * CCSD(T) total energy                  = -191.728588914925353
    Molecular point group: c1

    Geometry (in Angstrom), charge = 0, multiplicity = 1:

       Center              X                  Y                   Z               Mass
    ------------   -----------------  -----------------  -----------------  -----------------
         O           -1.635208383574     0.076868178427     0.153710661472    15.994914619570
         H           -2.051885383574     0.875741178427     0.479480661472     1.007825032230
         H           -0.706181383574     0.187625178427     0.394659661472     1.007825032230
         O            0.663470616426     0.177397178427     0.498783661472    15.994914619570
         H            1.031453616426    -0.394680821573     1.176312661472     1.007825032230
         C            1.128475616426    -0.294232821573    -0.763375338528    12.000000000000
         H            0.697658616426     0.356861178427    -1.516489338528     1.007825032230
         H            2.214439616426    -0.243439821573    -0.837687338528     1.007825032230
         H            0.800132616426    -1.314102821573    -0.962455338528     1.007825032230

  Charge       = 0
  Multiplicity = 1
  Basis Set: AUG-CC-PVTZ
    Blend: AUG-CC-PVTZ
  Basis Set: (AUG-CC-PVTZ AUX)
    Blend: AUG-CC-PVTZ-JKFIT

    Orbital Energies [Eh]
    ---------------------

    Doubly Occupied:

       1A    -20.595687     2A    -20.496040     3A    -11.289163
       4A     -1.411862     5A     -1.293765     6A     -0.951878
       7A     -0.757173     8A     -0.696271     9A     -0.635916
      10A     -0.605433    11A     -0.555218    12A     -0.515862
      13A     -0.471140    14A     -0.451269

  @DF-RHF Final Energy:  -191.13707111968864

   => Energetics <=

    Nuclear Repulsion Energy =             86.3734791133099691
    One-Electron Energy =                -433.5677456565666716
    Two-Electron Energy =                 156.0571954235680892
    Total Energy =                       -191.1370711196886418

  Dipole Moment: [D]
     X:     3.2367      Y:    -0.0717      Z:     0.5305     Total:     3.2807

      * MP2 total energy                      = -191.901800546783420
      * CCSD total energy                     = -191.922704355522598
      * CCSD(T) total energy                  = -191.948864407916489
*** Psi4 exiting successfully. Buy a developer a beer!
