                               Psi4 1.4a2.dev224

  ==> Input File <==

--------------------------------------------------------------------------
#Generated by lconvert.py for cbs job

memory 50 GB

molecule  {
0 1
  O      -0.687465   -0.111744   -0.019625
  H      -1.046122    0.775938    0.012707
  H       0.274043    0.025851   -0.003497
--
0 1
  N       2.284419    0.105173    0.006094
  H       2.579784   -0.447465   -0.788697
  H       2.594500   -0.405548    0.822954
  C       2.943754    1.413537   -0.034147
  H       2.633212    1.995262    0.830368
  H       4.035064    1.374242   -0.043103
  H       2.617042    1.949454   -0.921971
units angstrom
no_reorient
symmetry c1
}

set {
scf_type DF
mp2_type DF
e_convergence 7
reference rhf
}

energy(cbs, corl_wfn='mp2', corl_basis='aug-cc-pv[tq]z', delta_wfn='ccsd(t)', delta_basis='aug-cc-pv[dt]z', bsse_type='cp')
--------------------------------------------------------------------------

    Molecular point group: c1
  Charge       = 0
  Multiplicity = 1
  Basis Set: AUG-CC-PVQZ
    Blend: AUG-CC-PVQZ
  Basis Set: (AUG-CC-PVQZ AUX)
    Blend: AUG-CC-PVQZ-JKFIT
  @DF-RHF Final Energy:   -95.26144600736444
    Total Energy =                        -95.2614460073644409
  Basis Set: (AUG-CC-PVQZ AUX)
    Blend: AUG-CC-PVQZ-RI
	 Reference Energy          =     -95.2614460073644409 [Eh]
	 Singles Energy            =      -0.0000000000000000 [Eh]
	 Same-Spin Energy          =      -0.1011262541952020 [Eh]
	 Opposite-Spin Energy      =      -0.3925107606183403 [Eh]
	 Correlation Energy        =      -0.4936370148135423 [Eh]
	 Total Energy              =     -95.7550830221779847 [Eh]
	 SCS Total Energy          =     -95.7661676715048458 [Eh]
    Molecular point group: c1
  Basis Set: AUG-CC-PVDZ
    Blend: AUG-CC-PVDZ
  Basis Set: (AUG-CC-PVDZ AUX)
    Blend: AUG-CC-PVDZ-JKFIT
  @DF-RHF Final Energy:   -95.23063923479125
    Total Energy =                        -95.2306392347912549
      * MP2 total energy                      =  -95.579048888807023
      * CCSD total energy                     =  -95.607985925214678
      * CCSD(T) total energy                  =  -95.618723290695129
  @DF-RHF Final Energy:   -95.25546302126452
    Total Energy =                        -95.2554630212645179
      * MP2 total energy                      =  -95.702587068688572
      * CCSD total energy                     =  -95.726838344172464
      * CCSD(T) total energy                  =  -95.742836680039005
  @DF-RHF Final Energy:   -95.26146612856238
    Total Energy =                        -95.2614661285623754
  @DF-RHF Final Energy:   -95.23105264866881
    Total Energy =                        -95.2310526486688076
      * MP2 total energy                      =  -95.580261154646280
      * CCSD total energy                     =  -95.609119629112215
      * CCSD(T) total energy                  =  -95.619946849044908
  @DF-RHF Final Energy:   -95.25550766689403
    Total Energy =                        -95.2555076668940330
      * MP2 total energy                      =  -95.703398613250400
      * CCSD total energy                     =  -95.727617008369023
      * CCSD(T) total energy                  =  -95.743642749819486
  @DF-RHF Final Energy:   -76.06525989107530
    Total Energy =                        -76.0652598910752999
  @DF-RHF Final Energy:   -76.04092398574531
    Total Energy =                        -76.0409239857453088
      * MP2 total energy                      =  -76.264000682003783
      * CCSD total energy                     =  -76.271439729439663
      * CCSD(T) total energy                  =  -76.276814712154362
  @DF-RHF Final Energy:   -76.05995177530068
    Total Energy =                        -76.0599517753006751
      * MP2 total energy                      =  -76.344962034017797
      * CCSD total energy                     =  -76.349514841436857
      * CCSD(T) total energy                  =  -76.358383611363976
  @DF-RHF Final Energy:   -76.06523393673370
    Total Energy =                        -76.0652339367337049
  @DF-RHF Final Energy:   -76.04075419245662
    Total Energy =                        -76.0407541924566175
      * MP2 total energy                      =  -76.263284664291945
      * CCSD total energy                     =  -76.270756220096118
      * CCSD(T) total energy                  =  -76.276048303264474
  @DF-RHF Final Energy:   -76.05987710549383
    Total Energy =                        -76.0598771054938112
      * MP2 total energy                      =  -76.343969849863498
      * CCSD total energy                     =  -76.348509836421684
      * CCSD(T) total energy                  =  -76.357351457240895
  @DF-RHF Final Energy:  -171.33431981705832
    Total Energy =                       -171.3343198170583150
	 Opposite-Spin Energy      =      -0.6390922301335705 [Eh]
	 Correlation Energy        =      -0.8150918421584180 [Eh]
	 Total Energy              =    -172.1494116592167245 [Eh]

	 ================> DF-SCS-MP2 Energies <==================
	-----------------------------------------------------------
	 SCS Same-Spin Scale       =       0.3333333333333333 [-]
	 SCS Opposite-Spin Scale   =       1.2000000000000000 [-]
	 SCS Same-Spin Energy      =      -0.0586665373416158 [Eh]
	 SCS Opposite-Spin Energy  =      -0.7669106761602846 [Eh]
	 SCS Correlation Energy    =      -0.8255772135019005 [Eh]
	 SCS Total Energy          =    -172.1598970305602165 [Eh]
	-----------------------------------------------------------

  Multiplicity = 1
  Basis Set: AUG-CC-PVDZ
    Blend: AUG-CC-PVDZ
  Basis Set: (AUG-CC-PVDZ AUX)
    Blend: AUG-CC-PVDZ-JKFIT
  @DF-RHF Final Energy:  -171.27957016876184
    Total Energy =                       -171.2795701687618362
      * MP2 total energy                      = -171.854358278454100
      * CCSD total energy                     = -171.889952891955545
      * CCSD(T) total energy                  = -171.906619963065197
    Molecular point group: c1

    Geometry (in Angstrom), charge = 0, multiplicity = 1:

       Center              X                  Y                   Z               Mass
    ------------   -----------------  -----------------  -----------------  -----------------
         O           -2.116795686825    -0.559360118404    -0.004737308518    15.994914619570
         H           -2.475452686825     0.328321881596     0.027594691482     1.007825032230
         H           -1.155287686825    -0.421765118404     0.011390691482     1.007825032230
         N            0.855088313175    -0.342443118404     0.020981691482    14.003074004430
         H            1.150453313175    -0.895081118404    -0.773809308518     1.007825032230
         H            1.165169313175    -0.853164118404     0.837841691482     1.007825032230
         C            1.514423313175     0.965920881596    -0.019259308518    12.000000000000
         H            1.203881313175     1.547645881596     0.845255691482     1.007825032230
         H            2.605733313175     0.926625881596    -0.028215308518     1.007825032230
         H            1.187711313175     1.501837881596    -0.907083308518     1.007825032230

  Charge       = 0
  Multiplicity = 1
  Basis Set: AUG-CC-PVTZ
    Blend: AUG-CC-PVTZ
  Basis Set: (AUG-CC-PVTZ AUX)
    Blend: AUG-CC-PVTZ-JKFIT

    Orbital Energies [Eh]
    ---------------------

    Doubly Occupied:

       1A    -20.525790     2A    -15.562341     3A    -11.256730
       4A     -1.312088     5A     -1.193325     6A     -0.915167
       7A     -0.682805     8A     -0.679060     9A     -0.624024
      10A     -0.575588    11A     -0.549024    12A     -0.535029
      13A     -0.471346    14A     -0.418528

  @DF-RHF Final Energy:  -171.32303160694801

   => Energetics <=

    Nuclear Repulsion Energy =             79.3521776420180203
    One-Electron Energy =                -390.7487261839109465
    Two-Electron Energy =                 140.0735169349449052
    Total Energy =                       -171.3230316069480068

  Dipole Moment: [D]
     X:     3.2444      Y:     1.5632      Z:     0.0727     Total:     3.6021

      * MP2 total energy                      = -172.059159357210405
      * CCSD total energy                     = -172.087240908657975
      * CCSD(T) total energy                  = -172.112723904208536
*** Psi4 exiting successfully. Buy a developer a beer!
