                               Psi4 1.4a2.dev224

  ==> Input File <==

--------------------------------------------------------------------------
#Generated by lconvert.py for cbs job

memory 50 GB

molecule  {
0 1
  O      -0.687465   -0.111744   -0.019625
  H      -1.046122    0.775938    0.012707
  H       0.274043    0.025851   -0.003497
--
0 1
  N       1.681306    0.081376    0.003217
  H       1.976671   -0.471262   -0.791574
  H       1.991387   -0.429345    0.820076
  C       2.340641    1.389740   -0.037025
  H       2.030099    1.971465    0.827491
  H       3.431951    1.350445   -0.045980
  H       2.013929    1.925658   -0.924849
units angstrom
no_reorient
symmetry c1
}

set {
scf_type DF
mp2_type DF
e_convergence 7
reference rhf
}

energy(cbs, corl_wfn='mp2', corl_basis='aug-cc-pv[tq]z', delta_wfn='ccsd(t)', delta_basis='aug-cc-pv[dt]z', bsse_type='cp')
--------------------------------------------------------------------------

    Molecular point group: c1
  Charge       = 0
  Multiplicity = 1
  Basis Set: AUG-CC-PVQZ
    Blend: AUG-CC-PVQZ
  Basis Set: (AUG-CC-PVQZ AUX)
    Blend: AUG-CC-PVQZ-JKFIT
  @DF-RHF Final Energy:   -95.26144601547350
    Total Energy =                        -95.2614460154734957
  Basis Set: (AUG-CC-PVQZ AUX)
    Blend: AUG-CC-PVQZ-RI
	 Reference Energy          =     -95.2614460154734957 [Eh]
	 Singles Energy            =      -0.0000000000000000 [Eh]
	 Same-Spin Energy          =      -0.1011262499809931 [Eh]
	 Opposite-Spin Energy      =      -0.3925107544303869 [Eh]
	 Correlation Energy        =      -0.4936370044113799 [Eh]
	 Total Energy              =     -95.7550830198848786 [Eh]
	 SCS Total Energy          =     -95.7661676707836307 [Eh]
    Molecular point group: c1
  Basis Set: AUG-CC-PVDZ
    Blend: AUG-CC-PVDZ
  Basis Set: (AUG-CC-PVDZ AUX)
    Blend: AUG-CC-PVDZ-JKFIT
  @DF-RHF Final Energy:   -95.23063924915132
    Total Energy =                        -95.2306392491513236
      * MP2 total energy                      =  -95.579048898178328
      * CCSD total energy                     =  -95.607985938345138
      * CCSD(T) total energy                  =  -95.618723303865139
  @DF-RHF Final Energy:   -95.25546302946472
    Total Energy =                        -95.2554630294647211
      * MP2 total energy                      =  -95.702587067028404
      * CCSD total energy                     =  -95.726838346235255
      * CCSD(T) total energy                  =  -95.742836681851827
  @DF-RHF Final Energy:   -95.26147894850749
    Total Energy =                        -95.2614789485074880
  @DF-RHF Final Energy:   -95.23121671890237
    Total Energy =                        -95.2312167189023739
      * MP2 total energy                      =  -95.581676619079829
      * CCSD total energy                     =  -95.610447736330755
      * CCSD(T) total energy                  =  -95.621380774862942
  @DF-RHF Final Energy:   -95.25556088035626
    Total Energy =                        -95.2555608803562563
      * MP2 total energy                      =  -95.704611293343561
      * CCSD total energy                     =  -95.728723349497926
      * CCSD(T) total energy                  =  -95.744794945552684
  @DF-RHF Final Energy:   -76.06527442516951
    Total Energy =                        -76.0652744251695196
  @DF-RHF Final Energy:   -76.04130963087530
    Total Energy =                        -76.0413096308753040
      * MP2 total energy                      =  -76.265023131115854
      * CCSD total energy                     =  -76.272410919209335
      * CCSD(T) total energy                  =  -76.277857274976327
  @DF-RHF Final Energy:   -76.06002120066390
    Total Energy =                        -76.0600212006638969
      * MP2 total energy                      =  -76.345699696114565
      * CCSD total energy                     =  -76.350248049535097
      * CCSD(T) total energy                  =  -76.359135316136204
  @DF-RHF Final Energy:   -76.06523393673429
    Total Energy =                        -76.0652339367342876
  @DF-RHF Final Energy:   -76.04075419246783
    Total Energy =                        -76.0407541924678299
      * MP2 total energy                      =  -76.263284664291959
      * CCSD total energy                     =  -76.270756220096146
      * CCSD(T) total energy                  =  -76.276048303264488
  @DF-RHF Final Energy:   -76.05987710548892
    Total Energy =                        -76.0598771054889369
      * MP2 total energy                      =  -76.343969849863427
      * CCSD total energy                     =  -76.348509836421641
      * CCSD(T) total energy                  =  -76.357351457240853
  @DF-RHF Final Energy:  -171.31116656776464
    Total Energy =                       -171.3111665677646442
	 Opposite-Spin Energy      =      -0.6426101423561916 [Eh]
	 Correlation Energy        =      -0.8222514550360130 [Eh]
	 Total Energy              =    -172.1334180228006687 [Eh]

	 ================> DF-SCS-MP2 Energies <==================
	-----------------------------------------------------------
	 SCS Same-Spin Scale       =       0.3333333333333333 [-]
	 SCS Opposite-Spin Scale   =       1.2000000000000000 [-]
	 SCS Same-Spin Energy      =      -0.0598804375599405 [Eh]
	 SCS Opposite-Spin Energy  =      -0.7711321708274299 [Eh]
	 SCS Correlation Energy    =      -0.8310126083873703 [Eh]
	 SCS Total Energy          =    -172.1421791761520126 [Eh]
	-----------------------------------------------------------

  Multiplicity = 1
  Basis Set: AUG-CC-PVDZ
    Blend: AUG-CC-PVDZ
  Basis Set: (AUG-CC-PVDZ AUX)
    Blend: AUG-CC-PVDZ-JKFIT
  @DF-RHF Final Energy:  -171.25659377122304
    Total Energy =                       -171.2565937712230379
      * MP2 total energy                      = -171.837071879667633
      * CCSD total energy                     = -171.870881771834235
      * CCSD(T) total energy                  = -171.888195589023496
    Molecular point group: c1

    Geometry (in Angstrom), charge = 0, multiplicity = 1:

       Center              X                  Y                   Z               Mass
    ------------   -----------------  -----------------  -----------------  -----------------
         O           -1.735125982692    -0.544300616192    -0.002916362752    15.994914619570
         H           -2.093782982692     0.343381383808     0.029415637248     1.007825032230
         H           -0.773617982692    -0.406705616192     0.013211637248     1.007825032230
         N            0.633645017308    -0.351180616192     0.019925637248    14.003074004430
         H            0.929010017308    -0.903818616192    -0.774865362752     1.007825032230
         H            0.943726017308    -0.861901616192     0.836784637248     1.007825032230
         C            1.292980017308     0.957183383808    -0.020316362752    12.000000000000
         H            0.982438017308     1.538908383808     0.844199637248     1.007825032230
         H            2.384290017308     0.917888383808    -0.029271362752     1.007825032230
         H            0.966268017308     1.493101383808    -0.908140362752     1.007825032230

  Charge       = 0
  Multiplicity = 1
  Basis Set: AUG-CC-PVTZ
    Blend: AUG-CC-PVTZ
  Basis Set: (AUG-CC-PVTZ AUX)
    Blend: AUG-CC-PVTZ-JKFIT

    Orbital Energies [Eh]
    ---------------------

    Doubly Occupied:

       1A    -20.480447     2A    -15.572266     3A    -11.266687
       4A     -1.289712     5A     -1.210322     6A     -0.929848
       7A     -0.699368     8A     -0.691056     9A     -0.633555
      10A     -0.579895    11A     -0.546544    12A     -0.530954
      13A     -0.437389    14A     -0.411592

  @DF-RHF Final Energy:  -171.29992963051575

   => Energetics <=

    Nuclear Repulsion Energy =             85.5378441040324589
    One-Electron Energy =                -403.1162734276100537
    Two-Electron Energy =                 146.2784996930618604
    Total Energy =                       -171.2999296305157486

  Dipole Moment: [D]
     X:     4.0294      Y:     1.6368      Z:     0.0760     Total:     4.3498

      * MP2 total energy                      = -172.043327156852797
      * CCSD total energy                     = -172.069758343410598
      * CCSD(T) total energy                  = -172.095966980745857
*** Psi4 exiting successfully. Buy a developer a beer!
