                               Psi4 1.4a2.dev224

  ==> Input File <==

--------------------------------------------------------------------------
#Generated by lconvert.py for cbs job

memory 50 GB

molecule  {
0 1
  O      -0.706920    0.045830    0.006386
  H       0.265624    0.071710    0.001339
  C      -1.076671   -1.313916    0.001614
  H      -2.162924   -1.363196    0.005865
  H      -0.723406   -1.844652   -0.887743
  H      -0.716080   -1.852821    0.883080
--
0 1
  N       1.642027   -0.005180   -0.001987
  H       2.012646    0.502597    0.791145
  H       2.012769    0.459159   -0.821246
  C       2.119779   -1.391213    0.035474
  H       1.727894   -1.925238   -0.826717
  H       3.206490   -1.497948    0.038509
  H       1.727652   -1.877943    0.925106
units angstrom
no_reorient
symmetry c1
}

set {
scf_type DF
mp2_type DF
e_convergence 7
reference rhf
}

energy(cbs, corl_wfn='mp2', corl_basis='aug-cc-pv[tq]z', delta_wfn='ccsd(t)', delta_basis='aug-cc-pv[dt]z', bsse_type='cp')
--------------------------------------------------------------------------

    Molecular point group: c1
  Charge       = 0
  Multiplicity = 1
  Basis Set: AUG-CC-PVQZ
    Blend: AUG-CC-PVQZ
  Basis Set: (AUG-CC-PVQZ AUX)
    Blend: AUG-CC-PVQZ-JKFIT
  @DF-RHF Final Energy:   -95.26144219384963
    Total Energy =                        -95.2614421938496321
  Basis Set: (AUG-CC-PVQZ AUX)
    Blend: AUG-CC-PVQZ-RI
	 Reference Energy          =     -95.2614421938496321 [Eh]
	 Singles Energy            =      -0.0000000000000000 [Eh]
	 Same-Spin Energy          =      -0.1011217652556368 [Eh]
	 Opposite-Spin Energy      =      -0.3925159379266973 [Eh]
	 Correlation Energy        =      -0.4936377031823340 [Eh]
	 Total Energy              =     -95.7550798970319619 [Eh]
	 SCS Total Energy          =     -95.7661685744468798 [Eh]
    Molecular point group: c1
  Basis Set: AUG-CC-PVDZ
    Blend: AUG-CC-PVDZ
  Basis Set: (AUG-CC-PVDZ AUX)
    Blend: AUG-CC-PVDZ-JKFIT
  @DF-RHF Final Energy:   -95.23063726878190
    Total Energy =                        -95.2306372687819049
      * MP2 total energy                      =  -95.579055890477079
      * CCSD total energy                     =  -95.607994559715252
      * CCSD(T) total energy                  =  -95.618734595264570
  @DF-RHF Final Energy:   -95.25546019756554
    Total Energy =                        -95.2554601975655402
      * MP2 total energy                      =  -95.702585257479257
      * CCSD total energy                     =  -95.726836739706783
      * CCSD(T) total energy                  =  -95.742838301831938
  @DF-RHF Final Energy:   -95.26148166066021
    Total Energy =                        -95.2614816606602091
  @DF-RHF Final Energy:   -95.23138757781146
    Total Energy =                        -95.2313875778114607
      * MP2 total energy                      =  -95.582475983460384
      * CCSD total energy                     =  -95.611200573533367
      * CCSD(T) total energy                  =  -95.622192552447913
  @DF-RHF Final Energy:   -95.25558589879427
    Total Energy =                        -95.2555858987942656
      * MP2 total energy                      =  -95.705221088022853
      * CCSD total energy                     =  -95.729314109808556
      * CCSD(T) total energy                  =  -95.745406327181072
  @DF-RHF Final Energy:  -115.09887734306720
    Total Energy =                       -115.0988773430672012
  @DF-RHF Final Energy:  -115.06137921221712
    Total Energy =                       -115.0613792122171191
      * MP2 total energy                      = -115.429113378868962
      * CCSD total energy                     = -115.451836134018492
      * CCSD(T) total energy                  = -115.462541244287138
  @DF-RHF Final Energy:  -115.09150183485423
    Total Energy =                       -115.0915018348542276
      * MP2 total energy                      = -115.564258785890644
      * CCSD total energy                     = -115.582357528698211
      * CCSD(T) total energy                  = -115.598626160647086
  @DF-RHF Final Energy:  -115.09882729599182
    Total Energy =                       -115.0988272959918248
  @DF-RHF Final Energy:  -115.06071594515180
    Total Energy =                       -115.0607159451517987
      * MP2 total energy                      = -115.426821186678310
      * CCSD total energy                     = -115.449654006244174
      * CCSD(T) total energy                  = -115.460175740504368
  @DF-RHF Final Energy:  -115.09132124743374
    Total Energy =                       -115.0913212474337399
      * MP2 total energy                      = -115.562173204411650
      * CCSD total energy                     = -115.580282989564594
      * CCSD(T) total energy                  = -115.596496224645676
  @DF-RHF Final Energy:  -210.33902983061418
    Total Energy =                       -210.3390298306141801
	 Opposite-Spin Energy      =      -0.8110482076931962 [Eh]
	 Correlation Energy        =      -1.0325795500552442 [Eh]
	 Total Energy              =    -211.3716093806694118 [Eh]

	 ================> DF-SCS-MP2 Energies <==================
	-----------------------------------------------------------
	 SCS Same-Spin Scale       =       0.3333333333333333 [-]
	 SCS Opposite-Spin Scale   =       1.2000000000000000 [-]
	 SCS Same-Spin Energy      =      -0.0738437807873494 [Eh]
	 SCS Opposite-Spin Energy  =      -0.9732578492318353 [Eh]
	 SCS Correlation Energy    =      -1.0471016300191847 [Eh]
	 SCS Total Energy          =    -211.3861314606333508 [Eh]
	-----------------------------------------------------------

  Multiplicity = 1
  Basis Set: AUG-CC-PVDZ
    Blend: AUG-CC-PVDZ
  Basis Set: (AUG-CC-PVDZ AUX)
    Blend: AUG-CC-PVDZ-JKFIT
  @DF-RHF Final Energy:  -210.27101571695488
    Total Energy =                       -210.2710157169548779
      * MP2 total energy                      = -210.999433104142582
      * CCSD total energy                     = -211.047838947501248
      * CCSD(T) total energy                  = -211.070945018928967
    Molecular point group: c1

    Geometry (in Angstrom), charge = 0, multiplicity = 1:

       Center              X                  Y                   Z               Mass
    ------------   -----------------  -----------------  -----------------  -----------------
         O           -1.208149994289     0.699126332155    -0.003596318422    15.994914619570
         H           -0.235605994289     0.725006332155    -0.008643318422     1.007825032230
         C           -1.577900994289    -0.660619667845    -0.008368318422    12.000000000000
         H           -2.664153994289    -0.709899667845    -0.004117318422     1.007825032230
         H           -1.224635994289    -1.191355667845    -0.897725318422     1.007825032230
         H           -1.217309994289    -1.199524667845     0.873097681578     1.007825032230
         N            1.140797005711     0.648116332155    -0.011969318422    14.003074004430
         H            1.511416005711     1.155893332155     0.781162681578     1.007825032230
         H            1.511539005711     1.112455332155    -0.831228318422     1.007825032230
         C            1.618549005711    -0.737916667845     0.025491681578    12.000000000000
         H            1.226664005711    -1.271941667845    -0.836699318422     1.007825032230
         H            2.705260005711    -0.844651667845     0.028526681578     1.007825032230
         H            1.226422005711    -1.224646667845     0.915123681578     1.007825032230

  Charge       = 0
  Multiplicity = 1
  Basis Set: AUG-CC-PVTZ
    Blend: AUG-CC-PVTZ
  Basis Set: (AUG-CC-PVTZ AUX)
    Blend: AUG-CC-PVTZ-JKFIT

    Orbital Energies [Eh]
    ---------------------

    Doubly Occupied:

       1A    -20.476243     2A    -15.575071     3A    -11.266372
       4A    -11.236026     5A     -1.306837     6A     -1.214379
       7A     -0.933427     8A     -0.885313     9A     -0.702459
      10A     -0.697499    11A     -0.625053    12A     -0.579602
      13A     -0.576623    14A     -0.549298    15A     -0.546997
      16A     -0.491755    17A     -0.393887    18A     -0.393542

  @DF-RHF Final Energy:  -210.32567421294641

   => Energetics <=

    Nuclear Repulsion Energy =            141.0566510315708513
    One-Electron Energy =                -565.8638847648915089
    Two-Electron Energy =                 214.4815595203742760
    Total Energy =                       -210.3256742129464101

  Dipole Moment: [D]
     X:     4.2272      Y:    -1.1063      Z:    -0.0115     Total:     4.3695

      * MP2 total energy                      = -211.260467030626302
      * CCSD total energy                     = -211.299635847890926
      * CCSD(T) total energy                  = -211.333812574885656
*** Psi4 exiting successfully. Buy a developer a beer!
