                               Psi4 1.4a2.dev224

  ==> Input File <==

--------------------------------------------------------------------------
#Generated by lconvert.py for cbs job

memory 50 GB

molecule  {
0 1
  O      -0.786562    0.045168   -0.007189
  H       0.177707    0.012696   -0.006835
  C      -1.247991   -1.290284    0.001084
  H      -2.334277   -1.258897    0.000221
  H      -0.925966   -1.849768   -0.880445
  H      -0.927028   -1.838463    0.890077
--
0 1
  O       1.566606   -0.032884   -0.005345
  H       2.005810    0.355268   -0.765217
  H       2.004491    0.369720    0.747745
units angstrom
no_reorient
symmetry c1
}

set {
scf_type DF
mp2_type DF
e_convergence 7
reference rhf
}

energy(cbs, corl_wfn='mp2', corl_basis='aug-cc-pv[tq]z', delta_wfn='ccsd(t)', delta_basis='aug-cc-pv[dt]z', bsse_type='cp')
--------------------------------------------------------------------------

    Molecular point group: c1
  Charge       = 0
  Multiplicity = 1
  Basis Set: AUG-CC-PVQZ
    Blend: AUG-CC-PVQZ
  Basis Set: (AUG-CC-PVQZ AUX)
    Blend: AUG-CC-PVQZ-JKFIT
  @DF-RHF Final Energy:   -76.06578240097868
    Total Energy =                        -76.0657824009786765
  Basis Set: (AUG-CC-PVQZ AUX)
    Blend: AUG-CC-PVQZ-RI
	 Reference Energy          =     -76.0657824009786765 [Eh]
	 Singles Energy            =      -0.0000000000000000 [Eh]
	 Same-Spin Energy          =      -0.0727138369941080 [Eh]
	 Opposite-Spin Energy      =      -0.2442419246497271 [Eh]
	 Correlation Energy        =      -0.3169557616438351 [Eh]
	 Total Energy              =     -76.3827381626225161 [Eh]
	 SCS Total Energy          =     -76.3831106562230531 [Eh]
    Molecular point group: c1
  Basis Set: AUG-CC-PVDZ
    Blend: AUG-CC-PVDZ
  Basis Set: (AUG-CC-PVDZ AUX)
    Blend: AUG-CC-PVDZ-JKFIT
  @DF-RHF Final Energy:   -76.04123196266622
    Total Energy =                        -76.0412319626662168
      * MP2 total energy                      =  -76.263313512331720
      * CCSD total energy                     =  -76.270812325772255
      * CCSD(T) total energy                  =  -76.276065388145568
  @DF-RHF Final Energy:   -76.06040103811068
    Total Energy =                        -76.0604010381106832
      * MP2 total energy                      =  -76.344120109578768
      * CCSD total energy                     =  -76.348710985068905
      * CCSD(T) total energy                  =  -76.357499436036477
  @DF-RHF Final Energy:   -76.06584166004461
    Total Energy =                        -76.0658416600445975
  @DF-RHF Final Energy:   -76.04184793039079
    Total Energy =                        -76.0418479303908015
      * MP2 total energy                      =  -76.265903564999419
      * CCSD total energy                     =  -76.273308560482420
      * CCSD(T) total energy                  =  -76.278802584697232
  @DF-RHF Final Energy:   -76.06056863759518
    Total Energy =                        -76.0605686375951962
      * MP2 total energy                      =  -76.345836105527269
      * CCSD total energy                     =  -76.350345795395711
      * CCSD(T) total energy                  =  -76.359199763533226
  @DF-RHF Final Energy:  -115.09943436847639
    Total Energy =                       -115.0994343684763948
  @DF-RHF Final Energy:  -115.06145124935863
    Total Energy =                       -115.0614512493586261
      * MP2 total energy                      = -115.428175627911031
      * CCSD total energy                     = -115.450954065216337
      * CCSD(T) total energy                  = -115.461553403066745
  @DF-RHF Final Energy:  -115.09201232289176
    Total Energy =                       -115.0920123228917618
      * MP2 total energy                      = -115.563781892108096
      * CCSD total energy                     = -115.581917609601462
      * CCSD(T) total energy                  = -115.598129682256172
  @DF-RHF Final Energy:  -115.09940334525965
    Total Energy =                       -115.0994033452596454
  @DF-RHF Final Energy:  -115.06123902957104
    Total Energy =                       -115.0612390295710412
      * MP2 total energy                      = -115.427003833283763
      * CCSD total energy                     = -115.449850648975442
      * CCSD(T) total energy                  = -115.460344965155514
  @DF-RHF Final Energy:  -115.09188333970042
    Total Energy =                       -115.0918833397004164
      * MP2 total energy                      = -115.562437535281774
      * CCSD total energy                     = -115.580577866495133
      * CCSD(T) total energy                  = -115.596755021162934
  @DF-RHF Final Energy:  -191.15039413588505
    Total Energy =                       -191.1503941358850511
	 Opposite-Spin Energy      =      -0.6585902963134014 [Eh]
	 Correlation Energy        =      -0.8484262469418321 [Eh]
	 Total Energy              =    -191.9988203828268922 [Eh]

	 ================> DF-SCS-MP2 Energies <==================
	-----------------------------------------------------------
	 SCS Same-Spin Scale       =       0.3333333333333333 [-]
	 SCS Opposite-Spin Scale   =       1.2000000000000000 [-]
	 SCS Same-Spin Energy      =      -0.0632786502094769 [Eh]
	 SCS Opposite-Spin Energy  =      -0.7903083555760816 [Eh]
	 SCS Correlation Energy    =      -0.8535870057855585 [Eh]
	 SCS Total Energy          =    -192.0039811416706073 [Eh]
	-----------------------------------------------------------

  Multiplicity = 1
  Basis Set: AUG-CC-PVDZ
    Blend: AUG-CC-PVDZ
  Basis Set: (AUG-CC-PVDZ AUX)
    Blend: AUG-CC-PVDZ-JKFIT
  @DF-RHF Final Energy:  -191.08761480318398
    Total Energy =                       -191.0876148031839818
      * MP2 total energy                      = -191.682730635746111
      * CCSD total energy                     = -191.711308099322423
      * CCSD(T) total energy                  = -191.728172041511499
    Molecular point group: c1

    Geometry (in Angstrom), charge = 0, multiplicity = 1:

       Center              X                  Y                   Z               Mass
    ------------   -----------------  -----------------  -----------------  -----------------
         O           -0.736630487985     0.435467090494    -0.003151182915    15.994914619570
         H            0.227638512015     0.402995090494    -0.002797182915     1.007825032230
         C           -1.198059487985    -0.899984909506     0.005121817085    12.000000000000
         H           -2.284345487985    -0.868597909506     0.004258817085     1.007825032230
         H           -0.876034487985    -1.459468909506    -0.876407182915     1.007825032230
         H           -0.877096487985    -1.448163909506     0.894114817085     1.007825032230
         O            1.616537512015     0.357415090494    -0.001307182915    15.994914619570
         H            2.055741512015     0.745567090494    -0.761179182915     1.007825032230
         H            2.054422512015     0.760019090494     0.751782817085     1.007825032230

  Charge       = 0
  Multiplicity = 1
  Basis Set: AUG-CC-PVTZ
    Blend: AUG-CC-PVTZ
  Basis Set: (AUG-CC-PVTZ AUX)
    Blend: AUG-CC-PVTZ-JKFIT

    Orbital Energies [Eh]
    ---------------------

    Doubly Occupied:

       1A    -20.611381     2A    -20.494299     3A    -11.238756
       4A     -1.415387     5A     -1.308866     6A     -0.894772
       7A     -0.766108     8A     -0.722235     9A     -0.606625
      10A     -0.583947    11A     -0.571634    12A     -0.538146
      13A     -0.449784    14A     -0.405320

  @DF-RHF Final Energy:  -191.13763825642408

   => Energetics <=

    Nuclear Repulsion Energy =             84.8598808474905297
    One-Electron Energy =                -430.7805167949617271
    Two-Electron Energy =                 154.7829976910470862
    Total Energy =                       -191.1376382564240828

  Dipole Moment: [D]
     X:     3.8733      Y:     0.2030      Z:    -0.0034     Total:     3.8786

      * MP2 total energy                      = -191.900809474085889
      * CCSD total energy                     = -191.921953691048230
      * CCSD(T) total energy                  = -191.948019784511587
*** Psi4 exiting successfully. Buy a developer a beer!
