                               Psi4 1.4a2.dev224

  ==> Input File <==

--------------------------------------------------------------------------
#Generated by lconvert.py for cbs job

memory 50 GB

molecule  {
0 1
  O      -0.786562    0.045168   -0.007189
  H       0.177707    0.012696   -0.006835
  C      -1.247991   -1.290284    0.001084
  H      -2.334277   -1.258897    0.000221
  H      -0.925966   -1.849768   -0.880445
  H      -0.927028   -1.838463    0.890077
--
0 1
  O       2.161849   -0.052418   -0.004706
  H       2.601053    0.335734   -0.764578
  H       2.599733    0.350186    0.748384
units angstrom
no_reorient
symmetry c1
}

set {
scf_type DF
mp2_type DF
e_convergence 7
reference rhf
}

energy(cbs, corl_wfn='mp2', corl_basis='aug-cc-pv[tq]z', delta_wfn='ccsd(t)', delta_basis='aug-cc-pv[dt]z', bsse_type='cp')
--------------------------------------------------------------------------

    Molecular point group: c1
  Charge       = 0
  Multiplicity = 1
  Basis Set: AUG-CC-PVQZ
    Blend: AUG-CC-PVQZ
  Basis Set: (AUG-CC-PVQZ AUX)
    Blend: AUG-CC-PVQZ-JKFIT
  @DF-RHF Final Energy:   -76.06578242181445
    Total Energy =                        -76.0657824218144469
  Basis Set: (AUG-CC-PVQZ AUX)
    Blend: AUG-CC-PVQZ-RI
	 Reference Energy          =     -76.0657824218144469 [Eh]
	 Singles Energy            =      -0.0000000000000000 [Eh]
	 Same-Spin Energy          =      -0.0727138327038798 [Eh]
	 Opposite-Spin Energy      =      -0.2442419103027130 [Eh]
	 Correlation Energy        =      -0.3169557430065928 [Eh]
	 Total Energy              =     -76.3827381648210348 [Eh]
	 SCS Total Energy          =     -76.3831106584123347 [Eh]
    Molecular point group: c1
  Basis Set: AUG-CC-PVDZ
    Blend: AUG-CC-PVDZ
  Basis Set: (AUG-CC-PVDZ AUX)
    Blend: AUG-CC-PVDZ-JKFIT
  @DF-RHF Final Energy:   -76.04123197979560
    Total Energy =                        -76.0412319797955831
      * MP2 total energy                      =  -76.263313507497060
      * CCSD total energy                     =  -76.270812322453139
      * CCSD(T) total energy                  =  -76.276065382926674
  @DF-RHF Final Energy:   -76.06040105782733
    Total Energy =                        -76.0604010578273346
      * MP2 total energy                      =  -76.344120110540302
      * CCSD total energy                     =  -76.348710988650225
      * CCSD(T) total energy                  =  -76.357499437048986
  @DF-RHF Final Energy:   -76.06581754558475
    Total Energy =                        -76.0658175455847640
  @DF-RHF Final Energy:   -76.04155022525855
    Total Energy =                        -76.0415502252585327
      * MP2 total energy                      =  -76.264377188888105
      * CCSD total energy                     =  -76.271844808333640
      * CCSD(T) total energy                  =  -76.277213032153455
  @DF-RHF Final Energy:   -76.06047723432611
    Total Energy =                        -76.0604772343261146
      * MP2 total energy                      =  -76.344863656639916
      * CCSD total energy                     =  -76.349436606041309
      * CCSD(T) total energy                  =  -76.358257221813233
  @DF-RHF Final Energy:  -115.09942112393874
    Total Energy =                       -115.0994211239387397
  @DF-RHF Final Energy:  -115.06132017648690
    Total Energy =                       -115.0613201764869018
      * MP2 total energy                      = -115.427484552151185
      * CCSD total energy                     = -115.450306689679536
      * CCSD(T) total energy                  = -115.460854214280900
  @DF-RHF Final Energy:  -115.09193918545418
    Total Energy =                       -115.0919391854541800
      * MP2 total energy                      = -115.563177944506492
      * CCSD total energy                     = -115.581322531246386
      * CCSD(T) total energy                  = -115.597517895172899
  @DF-RHF Final Energy:  -115.09940334541859
    Total Energy =                       -115.0994033454185939
  @DF-RHF Final Energy:  -115.06123902960601
    Total Energy =                       -115.0612390296060141
      * MP2 total energy                      = -115.427003833283919
      * CCSD total energy                     = -115.449850648975612
      * CCSD(T) total energy                  = -115.460344965155670
  @DF-RHF Final Energy:  -115.09188333965128
    Total Energy =                       -115.0918833396512753
      * MP2 total energy                      = -115.562437535281362
      * CCSD total energy                     = -115.580577866494721
      * CCSD(T) total energy                  = -115.596755021162465
  @DF-RHF Final Energy:  -191.17093871174598
    Total Energy =                       -191.1709387117459755
	 Opposite-Spin Energy      =      -0.6560642810678337 [Eh]
	 Correlation Energy        =      -0.8427915744830601 [Eh]
	 Total Energy              =    -192.0137302862290483 [Eh]

	 ================> DF-SCS-MP2 Energies <==================
	-----------------------------------------------------------
	 SCS Same-Spin Scale       =       0.3333333333333333 [-]
	 SCS Opposite-Spin Scale   =       1.2000000000000000 [-]
	 SCS Same-Spin Energy      =      -0.0622424311384088 [Eh]
	 SCS Opposite-Spin Energy  =      -0.7872771372814004 [Eh]
	 SCS Correlation Energy    =      -0.8495195684198091 [Eh]
	 SCS Total Energy          =    -192.0204582801657978 [Eh]
	-----------------------------------------------------------

  Multiplicity = 1
  Basis Set: AUG-CC-PVDZ
    Blend: AUG-CC-PVDZ
  Basis Set: (AUG-CC-PVDZ AUX)
    Blend: AUG-CC-PVDZ-JKFIT
  @DF-RHF Final Energy:  -191.10851035349816
    Total Energy =                       -191.1085103534981613
      * MP2 total energy                      = -191.699026537926102
      * CCSD total energy                     = -191.728965670291842
      * CCSD(T) total energy                  = -191.745208210019712
    Molecular point group: c1

    Geometry (in Angstrom), charge = 0, multiplicity = 1:

       Center              X                  Y                   Z               Mass
    ------------   -----------------  -----------------  -----------------  -----------------
         O           -0.950886114905     0.442498285838    -0.003381188742    15.994914619570
         H            0.013382885095     0.410026285838    -0.003027188742     1.007825032230
         C           -1.412315114905    -0.892953714162     0.004891811258    12.000000000000
         H           -2.498601114905    -0.861566714162     0.004028811258     1.007825032230
         H           -1.090290114905    -1.452437714162    -0.876637188742     1.007825032230
         H           -1.091352114905    -1.441132714162     0.893884811258     1.007825032230
         O            1.997524885095     0.344912285838    -0.000898188742    15.994914619570
         H            2.436728885095     0.733064285838    -0.760770188742     1.007825032230
         H            2.435408885095     0.747516285838     0.752191811258     1.007825032230

  Charge       = 0
  Multiplicity = 1
  Basis Set: AUG-CC-PVTZ
    Blend: AUG-CC-PVTZ
  Basis Set: (AUG-CC-PVTZ AUX)
    Blend: AUG-CC-PVTZ-JKFIT

    Orbital Energies [Eh]
    ---------------------

    Doubly Occupied:

       1A    -20.592607     2A    -20.530688     3A    -11.251782
       4A     -1.380036     5A     -1.333590     6A     -0.905516
       7A     -0.741156     8A     -0.677623     9A     -0.611066
      10A     -0.599837    11A     -0.573440    12A     -0.538260
      13A     -0.479771    14A     -0.427244

  @DF-RHF Final Energy:  -191.15805969357010

   => Energetics <=

    Nuclear Repulsion Energy =             78.4544430019475527
    One-Electron Energy =                -417.9397675229336642
    Two-Electron Energy =                 148.3272648274160304
    Total Energy =                       -191.1580596935700953

  Dipole Moment: [D]
     X:     3.1325      Y:    -0.0157      Z:    -0.0024     Total:     3.1325

      * MP2 total energy                      = -191.915690139475629
      * CCSD total energy                     = -191.938060975818985
      * CCSD(T) total energy                  = -191.963484615147053
*** Psi4 exiting successfully. Buy a developer a beer!
