                               Psi4 1.4a2.dev224

  ==> Input File <==

--------------------------------------------------------------------------
#Generated by lconvert.py for cbs job

memory 50 GB

molecule  {
0 1
  N      -0.638641    0.470916    0.044568
  H       0.189954   -0.113937   -0.005774
  H      -1.300469    0.081257   -0.613668
  C      -1.198659    0.391399    1.391947
  H      -2.092738    1.009245    1.453167
  H      -1.462746   -0.615844    1.729452
  H      -0.480276    0.798675    2.101087
--
0 1
  N       1.758413   -0.356479    0.138238
  H       2.054682   -0.081941   -0.789748
  H       2.381963   -1.104169    0.413432
  C       1.918643    0.778731    1.051913
  H       1.648453    0.464036    2.057566
  H       2.926054    1.200508    1.088885
  H       1.226103    1.564507    0.759256
units angstrom
no_reorient
symmetry c1
}

set {
scf_type DF
mp2_type DF
e_convergence 7
reference rhf
}

energy(cbs, corl_wfn='mp2', corl_basis='aug-cc-pv[tq]z', delta_wfn='ccsd(t)', delta_basis='aug-cc-pv[dt]z', bsse_type='cp')
--------------------------------------------------------------------------

    Molecular point group: c1
  Charge       = 0
  Multiplicity = 1
  Basis Set: AUG-CC-PVQZ
    Blend: AUG-CC-PVQZ
  Basis Set: (AUG-CC-PVQZ AUX)
    Blend: AUG-CC-PVQZ-JKFIT
  @DF-RHF Final Energy:   -95.26138971406596
    Total Energy =                        -95.2613897140659560
  Basis Set: (AUG-CC-PVQZ AUX)
    Blend: AUG-CC-PVQZ-RI
	 Reference Energy          =     -95.2613897140659560 [Eh]
	 Singles Energy            =      -0.0000000000000000 [Eh]
	 Same-Spin Energy          =      -0.1011293164984452 [Eh]
	 Opposite-Spin Energy      =      -0.3925353591678590 [Eh]
	 Correlation Energy        =      -0.4936646756663042 [Eh]
	 Total Energy              =     -95.7550543897322655 [Eh]
	 SCS Total Energy          =     -95.7661419172335400 [Eh]
    Molecular point group: c1
  Basis Set: AUG-CC-PVDZ
    Blend: AUG-CC-PVDZ
  Basis Set: (AUG-CC-PVDZ AUX)
    Blend: AUG-CC-PVDZ-JKFIT
  @DF-RHF Final Energy:   -95.23060190676995
    Total Energy =                        -95.2306019067699481
      * MP2 total energy                      =  -95.579047382305987
      * CCSD total energy                     =  -95.607986651618447
      * CCSD(T) total energy                  =  -95.618730475909814
  @DF-RHF Final Energy:   -95.25540799748761
    Total Energy =                        -95.2554079974876089
      * MP2 total energy                      =  -95.702563071660066
      * CCSD total energy                     =  -95.726814417740599
      * CCSD(T) total energy                  =  -95.742819790672897
  @DF-RHF Final Energy:   -95.26142648895210
    Total Energy =                        -95.2614264889520967
  @DF-RHF Final Energy:   -95.23144058715802
    Total Energy =                        -95.2314405871580192
      * MP2 total energy                      =  -95.582212772734664
      * CCSD total energy                     =  -95.610929187710624
      * CCSD(T) total energy                  =  -95.621912230806245
  @DF-RHF Final Energy:   -95.25552012110649
    Total Energy =                        -95.2555201211064855
      * MP2 total energy                      =  -95.704742718574096
      * CCSD total energy                     =  -95.728899135676841
      * CCSD(T) total energy                  =  -95.744977676517337
  @DF-RHF Final Energy:   -95.26133097960107
    Total Energy =                        -95.2613309796010697
  @DF-RHF Final Energy:   -95.23121913800863
    Total Energy =                        -95.2312191380086261
      * MP2 total energy                      =  -95.581254057603104
      * CCSD total energy                     =  -95.610045971314804
      * CCSD(T) total energy                  =  -95.620940577327062
  @DF-RHF Final Energy:   -95.25541050003955
    Total Energy =                        -95.2554105000395452
      * MP2 total energy                      =  -95.704501460194010
      * CCSD total energy                     =  -95.728721636414321
      * CCSD(T) total energy                  =  -95.744781916245969
  @DF-RHF Final Energy:   -95.26130143443903
    Total Energy =                        -95.2613014344390336
  @DF-RHF Final Energy:   -95.23053941032313
    Total Energy =                        -95.2305394103231322
      * MP2 total energy                      =  -95.579041291382325
      * CCSD total energy                     =  -95.607983214387843
      * CCSD(T) total energy                  =  -95.618725897677805
  @DF-RHF Final Energy:   -95.25531910239079
    Total Energy =                        -95.2553191023907857
      * MP2 total energy                      =  -95.702526189241908
      * CCSD total energy                     =  -95.726778698248864
      * CCSD(T) total energy                  =  -95.742782964597396
  @DF-RHF Final Energy:  -190.49692339205575
    Total Energy =                       -190.4969233920557485
	 Opposite-Spin Energy      =      -0.7941912581747410 [Eh]
	 Correlation Energy        =      -1.0048592784293406 [Eh]
	 Total Energy              =    -191.5017826704850847 [Eh]

	 ================> DF-SCS-MP2 Energies <==================
	-----------------------------------------------------------
	 SCS Same-Spin Scale       =       0.3333333333333333 [-]
	 SCS Opposite-Spin Scale   =       1.2000000000000000 [-]
	 SCS Same-Spin Energy      =      -0.0702226734181998 [Eh]
	 SCS Opposite-Spin Energy  =      -0.9530295098096891 [Eh]
	 SCS Correlation Energy    =      -1.0232521832278889 [Eh]
	 SCS Total Energy          =    -191.5201755752836448 [Eh]
	-----------------------------------------------------------

  Multiplicity = 1
  Basis Set: AUG-CC-PVDZ
    Blend: AUG-CC-PVDZ
  Basis Set: (AUG-CC-PVDZ AUX)
    Blend: AUG-CC-PVDZ-JKFIT
  @DF-RHF Final Energy:  -190.43642882939849
    Total Energy =                       -190.4364288293984941
      * MP2 total energy                      = -191.149475342132007
      * CCSD total energy                     = -191.203777650434290
      * CCSD(T) total energy                  = -191.227261334422479
    Molecular point group: c1

    Geometry (in Angstrom), charge = 0, multiplicity = 1:

       Center              X                  Y                   Z               Mass
    ------------   -----------------  -----------------  -----------------  -----------------
         N           -1.113009376892     0.166951949814    -0.602034651229    14.003074004430
         H           -0.284414376892    -0.417901050186    -0.652376651229     1.007825032230
         H           -1.774837376892    -0.222707050186    -1.260270651229     1.007825032230
         C           -1.673027376892     0.087434949814     0.745344348771    12.000000000000
         H           -2.567106376892     0.705280949814     0.806564348771     1.007825032230
         H           -1.937114376892    -0.919808050186     1.082849348771     1.007825032230
         H           -0.954644376892     0.494710949814     1.454484348771     1.007825032230
         N            1.284044623108    -0.660443050186    -0.508364651229    14.003074004430
         H            1.580313623108    -0.385905050186    -1.436350651229     1.007825032230
         H            1.907594623108    -1.408133050186    -0.233170651229     1.007825032230
         C            1.444274623108     0.474766949814     0.405310348771    12.000000000000
         H            1.174084623108     0.160071949814     1.410963348771     1.007825032230
         H            2.451685623108     0.896543949814     0.442282348771     1.007825032230
         H            0.751734623108     1.260542949814     0.112653348771     1.007825032230

  Charge       = 0
  Multiplicity = 1
  Basis Set: AUG-CC-PVTZ
    Blend: AUG-CC-PVTZ
  Basis Set: (AUG-CC-PVTZ AUX)
    Blend: AUG-CC-PVTZ-JKFIT

    Orbital Energies [Eh]
    ---------------------

    Doubly Occupied:

       1A    -15.553274     2A    -15.490738     3A    -11.240328
       4A    -11.218975     5A     -1.197442     6A     -1.135675
       7A     -0.905797     8A     -0.873338     9A     -0.690103
      10A     -0.661530    11A     -0.596001    12A     -0.582315
      13A     -0.557966    14A     -0.523923    15A     -0.523068
      16A     -0.502216    17A     -0.403499    18A     -0.354323

  @DF-RHF Final Energy:  -190.48505212987101

   => Energetics <=

    Nuclear Repulsion Energy =            141.6081930851616164
    One-Electron Energy =                -538.1654684286085057
    Two-Electron Energy =                 206.0722232135759100
    Total Energy =                       -190.4850521298710078

  Dipole Moment: [D]
     X:     1.9513      Y:    -1.1494      Z:     0.0750     Total:     2.2659

      * MP2 total energy                      = -191.398354080220059
      * CCSD total energy                     = -191.443411205564558
      * CCSD(T) total energy                  = -191.477584083052875
*** Psi4 exiting successfully. Buy a developer a beer!
