                               Psi4 1.4a2.dev224

  ==> Input File <==

--------------------------------------------------------------------------
#Generated by lconvert.py for cbs job

memory 50 GB

molecule  {
0 1
  N      -0.638641    0.470916    0.044568
  H       0.189954   -0.113937   -0.005774
  H      -1.300469    0.081257   -0.613668
  C      -1.198659    0.391399    1.391947
  H      -2.092738    1.009245    1.453167
  H      -1.462746   -0.615844    1.729452
  H      -0.480276    0.798675    2.101087
--
0 1
  N       2.430610   -0.460426    0.199957
  H       2.726879   -0.185888   -0.728029
  H       3.054160   -1.208116    0.475152
  C       2.590840    0.674785    1.113632
  H       2.320650    0.360089    2.119285
  H       3.598250    1.096561    1.150604
  H       1.898300    1.460560    0.820975
units angstrom
no_reorient
symmetry c1
}

set {
scf_type DF
mp2_type DF
e_convergence 7
reference rhf
}

energy(cbs, corl_wfn='mp2', corl_basis='aug-cc-pv[tq]z', delta_wfn='ccsd(t)', delta_basis='aug-cc-pv[dt]z', bsse_type='cp')
--------------------------------------------------------------------------

    Molecular point group: c1
  Charge       = 0
  Multiplicity = 1
  Basis Set: AUG-CC-PVQZ
    Blend: AUG-CC-PVQZ
  Basis Set: (AUG-CC-PVQZ AUX)
    Blend: AUG-CC-PVQZ-JKFIT
  @DF-RHF Final Energy:   -95.26138970851709
    Total Energy =                        -95.2613897085170862
  Basis Set: (AUG-CC-PVQZ AUX)
    Blend: AUG-CC-PVQZ-RI
	 Reference Energy          =     -95.2613897085170862 [Eh]
	 Singles Energy            =      -0.0000000000000000 [Eh]
	 Same-Spin Energy          =      -0.1011293159019642 [Eh]
	 Opposite-Spin Energy      =      -0.3925353636296324 [Eh]
	 Correlation Energy        =      -0.4936646795315966 [Eh]
	 Total Energy              =     -95.7550543880486771 [Eh]
	 SCS Total Energy          =     -95.7661419168399703 [Eh]
    Molecular point group: c1
  Basis Set: AUG-CC-PVDZ
    Blend: AUG-CC-PVDZ
  Basis Set: (AUG-CC-PVDZ AUX)
    Blend: AUG-CC-PVDZ-JKFIT
  @DF-RHF Final Energy:   -95.23060189034950
    Total Energy =                        -95.2306018903495044
      * MP2 total energy                      =  -95.579047364984788
      * CCSD total energy                     =  -95.607986631108545
      * CCSD(T) total energy                  =  -95.618730455979573
  @DF-RHF Final Energy:   -95.25540799223353
    Total Energy =                        -95.2554079922335291
      * MP2 total energy                      =  -95.702563069562643
      * CCSD total energy                     =  -95.726814412425441
      * CCSD(T) total energy                  =  -95.742819786298739
  @DF-RHF Final Energy:   -95.26141117690368
    Total Energy =                        -95.2614111769036782
  @DF-RHF Final Energy:   -95.23103571503526
    Total Energy =                        -95.2310357150352615
      * MP2 total energy                      =  -95.580463477715071
      * CCSD total energy                     =  -95.609312537310430
      * CCSD(T) total energy                  =  -95.620161165553085
  @DF-RHF Final Energy:   -95.25545714099523
    Total Energy =                        -95.2554571409952331
      * MP2 total energy                      =  -95.703519267522609
      * CCSD total energy                     =  -95.727742388089410
      * CCSD(T) total energy                  =  -95.743778614405457
  @DF-RHF Final Energy:   -95.26131713625169
    Total Energy =                        -95.2613171362516908
  @DF-RHF Final Energy:   -95.23083766036970
    Total Energy =                        -95.2308376603697013
      * MP2 total energy                      =  -95.580092806855077
      * CCSD total energy                     =  -95.608959919816726
      * CCSD(T) total energy                  =  -95.619780567678731
  @DF-RHF Final Energy:   -95.25536437777197
    Total Energy =                        -95.2553643777719685
      * MP2 total energy                      =  -95.703444431767409
      * CCSD total energy                     =  -95.727684580248109
      * CCSD(T) total energy                  =  -95.743715437321327
  @DF-RHF Final Energy:   -95.26130143457615
    Total Energy =                        -95.2613014345761542
  @DF-RHF Final Energy:   -95.23053941031930
    Total Energy =                        -95.2305394103192953
      * MP2 total energy                      =  -95.579041291382467
      * CCSD total energy                     =  -95.607983214387900
      * CCSD(T) total energy                  =  -95.618725897677862
  @DF-RHF Final Energy:   -95.25531910232230
    Total Energy =                        -95.2553191023223036
      * MP2 total energy                      =  -95.702526189240970
      * CCSD total energy                     =  -95.726778698247742
      * CCSD(T) total energy                  =  -95.742782964596259
  @DF-RHF Final Energy:  -190.52443023844674
    Total Energy =                       -190.5244302384467403
	 Opposite-Spin Energy      =      -0.7880536011610809 [Eh]
	 Correlation Energy        =      -0.9930075522179767 [Eh]
	 Total Energy              =    -191.5174377906647294 [Eh]

	 ================> DF-SCS-MP2 Energies <==================
	-----------------------------------------------------------
	 SCS Same-Spin Scale       =       0.3333333333333333 [-]
	 SCS Opposite-Spin Scale   =       1.2000000000000000 [-]
	 SCS Same-Spin Energy      =      -0.0683179836856319 [Eh]
	 SCS Opposite-Spin Energy  =      -0.9456643213932970 [Eh]
	 SCS Correlation Energy    =      -1.0139823050789289 [Eh]
	 SCS Total Energy          =    -191.5384125435256806 [Eh]
	-----------------------------------------------------------

  Multiplicity = 1
  Basis Set: AUG-CC-PVDZ
    Blend: AUG-CC-PVDZ
  Basis Set: (AUG-CC-PVDZ AUX)
    Blend: AUG-CC-PVDZ-JKFIT
  @DF-RHF Final Energy:  -190.46354761026123
    Total Energy =                       -190.4635476102612301
      * MP2 total energy                      = -191.166421425286387
      * CCSD total energy                     = -191.223324142539354
      * CCSD(T) total energy                  = -191.245617418518037
    Molecular point group: c1

    Geometry (in Angstrom), charge = 0, multiplicity = 1:

       Center              X                  Y                   Z               Mass
    ------------   -----------------  -----------------  -----------------  -----------------
         N           -1.449107860659     0.218925256529    -0.632894167463    14.003074004430
         H           -0.620512860659    -0.365927743471    -0.683236167463     1.007825032230
         H           -2.110935860659    -0.170733743471    -1.291130167463     1.007825032230
         C           -2.009125860659     0.139408256529     0.714484832537    12.000000000000
         H           -2.903204860659     0.757254256529     0.775704832537     1.007825032230
         H           -2.273212860659    -0.867834743471     1.051989832537     1.007825032230
         H           -1.290742860659     0.546684256529     1.423624832537     1.007825032230
         N            1.620143139341    -0.712416743471    -0.477505167463    14.003074004430
         H            1.916412139341    -0.437878743471    -1.405491167463     1.007825032230
         H            2.243693139341    -1.460106743471    -0.202310167463     1.007825032230
         C            1.780373139341     0.422794256529     0.436169832537    12.000000000000
         H            1.510183139341     0.108098256529     1.441822832537     1.007825032230
         H            2.787783139341     0.844570256529     0.473141832537     1.007825032230
         H            1.087833139341     1.208569256529     0.143512832537     1.007825032230

  Charge       = 0
  Multiplicity = 1
  Basis Set: AUG-CC-PVTZ
    Blend: AUG-CC-PVTZ
  Basis Set: (AUG-CC-PVTZ AUX)
    Blend: AUG-CC-PVTZ-JKFIT

    Orbital Energies [Eh]
    ---------------------

    Doubly Occupied:

       1A    -15.547155     2A    -15.519647     3A    -11.241275
       4A    -11.228332     5A     -1.178193     6A     -1.153731
       7A     -0.899688     8A     -0.882261     9A     -0.669540
      10A     -0.649246    11A     -0.606463    12A     -0.590079
      13A     -0.558931    14A     -0.539644    15A     -0.519784
      16A     -0.503545    17A     -0.403202    18A     -0.376088

  @DF-RHF Final Energy:  -190.51250528686688

   => Energetics <=

    Nuclear Repulsion Energy =            131.3124419764320123
    One-Electron Energy =                -517.5162844274325380
    Two-Electron Energy =                 195.6913371641336425
    Total Energy =                       -190.5125052868668831

  Dipole Moment: [D]
     X:     1.4696      Y:    -1.0193      Z:     0.1796     Total:     1.7975

      * MP2 total energy                      = -191.413470685637350
      * CCSD total energy                     = -191.461059016329813
      * CCSD(T) total energy                  = -191.493881741365072
*** Psi4 exiting successfully. Buy a developer a beer!
