                               Psi4 1.4a2.dev224

  ==> Input File <==

--------------------------------------------------------------------------
#Generated by lconvert.py for cbs job

memory 50 GB

molecule  {
0 1
  N      -0.533464   -0.279594    0.106996
  H      -0.629151   -1.248425    0.382849
  H      -1.122604   -0.166159   -0.707764
  C      -1.016909    0.588486    1.187373
  H      -0.912760    1.625552    0.879521
  H      -2.054737    0.415082    1.478504
  H      -0.385023    0.448801    2.060614
--
0 1
  O       1.575472    0.716791    0.231574
  H       0.757954    0.220518    0.058421
  H       2.157373    0.458293   -0.484173
units angstrom
no_reorient
symmetry c1
}

set {
scf_type DF
mp2_type DF
e_convergence 7
reference rhf
}

energy(cbs, corl_wfn='mp2', corl_basis='aug-cc-pv[tq]z', delta_wfn='ccsd(t)', delta_basis='aug-cc-pv[dt]z', bsse_type='cp')
--------------------------------------------------------------------------

    Molecular point group: c1
  Charge       = 0
  Multiplicity = 1
  Basis Set: AUG-CC-PVQZ
    Blend: AUG-CC-PVQZ
  Basis Set: (AUG-CC-PVQZ AUX)
    Blend: AUG-CC-PVQZ-JKFIT
  @DF-RHF Final Energy:   -76.06521009834496
    Total Energy =                        -76.0652100983449770
  Basis Set: (AUG-CC-PVQZ AUX)
    Blend: AUG-CC-PVQZ-RI
	 Reference Energy          =     -76.0652100983449628 [Eh]
	 Singles Energy            =      -0.0000000000000000 [Eh]
	 Same-Spin Energy          =      -0.0728003437426055 [Eh]
	 Opposite-Spin Energy      =      -0.2445413556759978 [Eh]
	 Correlation Energy        =      -0.3173416994186034 [Eh]
	 Total Energy              =     -76.3825517977635684 [Eh]
	 SCS Total Energy          =     -76.3829265064036917 [Eh]
    Molecular point group: c1
  Basis Set: AUG-CC-PVDZ
    Blend: AUG-CC-PVDZ
  Basis Set: (AUG-CC-PVDZ AUX)
    Blend: AUG-CC-PVDZ-JKFIT
  @DF-RHF Final Energy:   -76.04073270166855
    Total Energy =                        -76.0407327016685599
      * MP2 total energy                      =  -76.263279804041233
      * CCSD total energy                     =  -76.270750912593073
      * CCSD(T) total energy                  =  -76.276044437067767
  @DF-RHF Final Energy:   -76.05985458075040
    Total Energy =                        -76.0598545807503967
      * MP2 total energy                      =  -76.343959306073614
      * CCSD total energy                     =  -76.348497745742989
      * CCSD(T) total energy                  =  -76.357341432787166
  @DF-RHF Final Energy:   -76.06525544362387
    Total Energy =                        -76.0652554436238688
  @DF-RHF Final Energy:   -76.04134636329192
    Total Energy =                        -76.0413463632919218
      * MP2 total energy                      =  -76.265132588239126
      * CCSD total energy                     =  -76.272505752028181
      * CCSD(T) total energy                  =  -76.277957038111325
  @DF-RHF Final Energy:   -76.06000085550298
    Total Energy =                        -76.0600008555029774
      * MP2 total energy                      =  -76.345648848459660
      * CCSD total energy                     =  -76.350176761309854
      * CCSD(T) total energy                  =  -76.359071009873759
  @DF-RHF Final Energy:   -95.26146198874685
    Total Energy =                        -95.2614619887468450
  @DF-RHF Final Energy:   -95.23127975177107
    Total Energy =                        -95.2312797517710692
      * MP2 total energy                      =  -95.582053188488615
      * CCSD total energy                     =  -95.610800611589809
      * CCSD(T) total energy                  =  -95.621769597380791
  @DF-RHF Final Energy:   -95.25556638711168
    Total Energy =                        -95.2555663871116849
      * MP2 total energy                      =  -95.704949738679844
      * CCSD total energy                     =  -95.729061547832416
      * CCSD(T) total energy                  =  -95.745146582372200
  @DF-RHF Final Energy:   -95.26142897770275
    Total Energy =                        -95.2614289777027494
  @DF-RHF Final Energy:   -95.23061934442381
    Total Energy =                        -95.2306193444238147
      * MP2 total energy                      =  -95.579039924474984
      * CCSD total energy                     =  -95.607976756584037
      * CCSD(T) total energy                  =  -95.618718974798611
  @DF-RHF Final Energy:   -95.25544773196795
    Total Energy =                        -95.2554477319679478
      * MP2 total energy                      =  -95.702575757817939
      * CCSD total energy                     =  -95.726825138882276
      * CCSD(T) total energy                  =  -95.742829314355546
  @DF-RHF Final Energy:  -171.30791926491668
    Total Energy =                       -171.3079192649166771
	 Opposite-Spin Energy      =      -0.6436582568229764 [Eh]
	 Correlation Energy        =      -0.8242930973424967 [Eh]
	 Total Energy              =    -172.1322123622591675 [Eh]

	 ================> DF-SCS-MP2 Energies <==================
	-----------------------------------------------------------
	 SCS Same-Spin Scale       =       0.3333333333333333 [-]
	 SCS Opposite-Spin Scale   =       1.2000000000000000 [-]
	 SCS Same-Spin Energy      =      -0.0602116135065068 [Eh]
	 SCS Opposite-Spin Energy  =      -0.7723899081875717 [Eh]
	 SCS Correlation Energy    =      -0.8326015216940785 [Eh]
	 SCS Total Energy          =    -172.1405207866107503 [Eh]
	-----------------------------------------------------------

  Multiplicity = 1
  Basis Set: AUG-CC-PVDZ
    Blend: AUG-CC-PVDZ
  Basis Set: (AUG-CC-PVDZ AUX)
    Blend: AUG-CC-PVDZ-JKFIT
  @DF-RHF Final Energy:  -171.25347229658882
    Total Energy =                       -171.2534722965888250
      * MP2 total energy                      = -171.835823868026267
      * CCSD total energy                     = -171.869141917305086
      * CCSD(T) total energy                  = -171.886613657992001
    Molecular point group: c1

    Geometry (in Angstrom), charge = 0, multiplicity = 1:

       Center              X                  Y                   Z               Mass
    ------------   -----------------  -----------------  -----------------  -----------------
         N           -0.601154776331    -0.613500808672    -0.364892379916    14.003074004430
         H           -0.696841776331    -1.582331808672    -0.089039379916     1.007825032230
         H           -1.190294776331    -0.500065808672    -1.179652379916     1.007825032230
         C           -1.084599776331     0.254579191328     0.715484620084    12.000000000000
         H           -0.980450776331     1.291645191328     0.407632620084     1.007825032230
         H           -2.122427776331     0.081175191328     1.006615620084     1.007825032230
         H           -0.452713776331     0.114894191328     1.588725620084     1.007825032230
         O            1.507781223669     0.382884191328    -0.240314379916    15.994914619570
         H            0.690263223669    -0.113388808672    -0.413467379916     1.007825032230
         H            2.089682223669     0.124386191328    -0.956061379916     1.007825032230

  Charge       = 0
  Multiplicity = 1
  Basis Set: AUG-CC-PVTZ
    Blend: AUG-CC-PVTZ
  Basis Set: (AUG-CC-PVTZ AUX)
    Blend: AUG-CC-PVTZ-JKFIT

    Orbital Energies [Eh]
    ---------------------

    Doubly Occupied:

       1A    -20.480904     2A    -15.570193     3A    -11.253861
       4A     -1.293438     5A     -1.205632     6A     -0.917873
       7A     -0.711178     8A     -0.694917     9A     -0.603782
      10A     -0.568811    11A     -0.539266    12A     -0.534755
      13A     -0.439193    14A     -0.410251

  @DF-RHF Final Energy:  -171.29670772230614

   => Energetics <=

    Nuclear Repulsion Energy =             88.3121285779182870
    One-Electron Energy =                -408.7695603114237883
    Two-Electron Energy =                 149.1607240111993349
    Total Energy =                       -171.2967077223061381

  Dipole Moment: [D]
     X:    -3.0958      Y:    -1.9918      Z:    -1.0140     Total:     3.8183

      * MP2 total energy                      = -172.042224880240923
      * CCSD total energy                     = -172.068160746217018
      * CCSD(T) total energy                  = -172.094551777760728
*** Psi4 exiting successfully. Buy a developer a beer!
