                               Psi4 1.4a2.dev224

  ==> Input File <==

--------------------------------------------------------------------------
#Generated by lconvert.py for cbs job

memory 50 GB

molecule  {
0 1
  N      -0.533464   -0.279594    0.106996
  H      -0.629151   -1.248425    0.382849
  H      -1.122604   -0.166159   -0.707764
  C      -1.016909    0.588486    1.187373
  H      -0.912760    1.625552    0.879521
  H      -2.054737    0.415082    1.478504
  H      -0.385023    0.448801    2.060614
--
0 1
  O       2.128936    0.931124    0.210756
  H       1.311419    0.434852    0.037603
  H       2.710838    0.672626   -0.504990
units angstrom
no_reorient
symmetry c1
}

set {
scf_type DF
mp2_type DF
e_convergence 7
reference rhf
}

energy(cbs, corl_wfn='mp2', corl_basis='aug-cc-pv[tq]z', delta_wfn='ccsd(t)', delta_basis='aug-cc-pv[dt]z', bsse_type='cp')
--------------------------------------------------------------------------

    Molecular point group: c1
  Charge       = 0
  Multiplicity = 1
  Basis Set: AUG-CC-PVQZ
    Blend: AUG-CC-PVQZ
  Basis Set: (AUG-CC-PVQZ AUX)
    Blend: AUG-CC-PVQZ-JKFIT
  @DF-RHF Final Energy:   -76.06521019251399
    Total Energy =                        -76.0652101925139874
  Basis Set: (AUG-CC-PVQZ AUX)
    Blend: AUG-CC-PVQZ-RI
	 Reference Energy          =     -76.0652101925139874 [Eh]
	 Singles Energy            =      -0.0000000000000000 [Eh]
	 Same-Spin Energy          =      -0.0728003306867538 [Eh]
	 Opposite-Spin Energy      =      -0.2445413109349473 [Eh]
	 Correlation Energy        =      -0.3173416416217011 [Eh]
	 Total Energy              =     -76.3825518341356826 [Eh]
	 SCS Total Energy          =     -76.3829265425315072 [Eh]
    Molecular point group: c1
  Basis Set: AUG-CC-PVDZ
    Blend: AUG-CC-PVDZ
  Basis Set: (AUG-CC-PVDZ AUX)
    Blend: AUG-CC-PVDZ-JKFIT
  @DF-RHF Final Energy:   -76.04073278527214
    Total Energy =                        -76.0407327852721266
      * MP2 total energy                      =  -76.263279818873571
      * CCSD total energy                     =  -76.270750931736586
      * CCSD(T) total energy                  =  -76.276044450203045
  @DF-RHF Final Energy:   -76.05985467136874
    Total Energy =                        -76.0598546713687398
      * MP2 total energy                      =  -76.343959338775562
      * CCSD total energy                     =  -76.348497786281996
      * CCSD(T) total energy                  =  -76.357341465195447
  @DF-RHF Final Energy:   -76.06523819597061
    Total Energy =                        -76.0652381959706076
  @DF-RHF Final Energy:   -76.04098500011652
    Total Energy =                        -76.0409850001165211
      * MP2 total energy                      =  -76.264131146057693
      * CCSD total energy                     =  -76.271557538267928
      * CCSD(T) total energy                  =  -76.276936628449548
  @DF-RHF Final Energy:   -76.05992686503659
    Total Energy =                        -76.0599268650366014
      * MP2 total energy                      =  -76.344929074037367
      * CCSD total energy                     =  -76.349471770603344
      * CCSD(T) total energy                  =  -76.358344345491503
  @DF-RHF Final Energy:   -95.26144892756710
    Total Energy =                        -95.2614489275671019
  @DF-RHF Final Energy:   -95.23110323458040
    Total Energy =                        -95.2311032345804023
      * MP2 total energy                      =  -95.580549936279326
      * CCSD total energy                     =  -95.609392625568162
      * CCSD(T) total energy                  =  -95.620250050280816
  @DF-RHF Final Energy:   -95.25550621372523
    Total Energy =                        -95.2555062137252264
      * MP2 total energy                      =  -95.703582407090693
      * CCSD total energy                     =  -95.727798810837044
      * CCSD(T) total energy                  =  -95.743835400311298
  @DF-RHF Final Energy:   -95.26142897766957
    Total Energy =                        -95.2614289776695671
  @DF-RHF Final Energy:   -95.23061934438465
    Total Energy =                        -95.2306193443846496
      * MP2 total energy                      =  -95.579039924474941
      * CCSD total energy                     =  -95.607976756583952
      * CCSD(T) total energy                  =  -95.618718974798512
  @DF-RHF Final Energy:   -95.25544773200497
    Total Energy =                        -95.2554477320049671
      * MP2 total energy                      =  -95.702575757817769
      * CCSD total energy                     =  -95.726825138881978
      * CCSD(T) total energy                  =  -95.742829314355191
  @DF-RHF Final Energy:  -171.33413134021492
    Total Energy =                       -171.3341313402149240
	 Opposite-Spin Energy      =      -0.6395742740780206 [Eh]
	 Correlation Energy        =      -0.8160077389759506 [Eh]
	 Total Energy              =    -172.1501390791908648 [Eh]

	 ================> DF-SCS-MP2 Energies <==================
	-----------------------------------------------------------
	 SCS Same-Spin Scale       =       0.3333333333333333 [-]
	 SCS Opposite-Spin Scale   =       1.2000000000000000 [-]
	 SCS Same-Spin Energy      =      -0.0588111549659767 [Eh]
	 SCS Opposite-Spin Energy  =      -0.7674891288936246 [Eh]
	 SCS Correlation Energy    =      -0.8263002838596013 [Eh]
	 SCS Total Energy          =    -172.1604316240745334 [Eh]
	-----------------------------------------------------------

  Multiplicity = 1
  Basis Set: AUG-CC-PVDZ
    Blend: AUG-CC-PVDZ
  Basis Set: (AUG-CC-PVDZ AUX)
    Blend: AUG-CC-PVDZ-JKFIT
  @DF-RHF Final Energy:  -171.27953037987606
    Total Energy =                       -171.2795303798760642
      * MP2 total energy                      = -171.855323313472667
      * CCSD total energy                     = -171.890698418411063
      * CCSD(T) total energy                  = -171.907463563750269
    Molecular point group: c1

    Geometry (in Angstrom), charge = 0, multiplicity = 1:

       Center              X                  Y                   Z               Mass
    ------------   -----------------  -----------------  -----------------  -----------------
         N           -0.804368630264    -0.692196871142    -0.357248714232    14.003074004430
         H           -0.900055630264    -1.661027871142    -0.081395714232     1.007825032230
         H           -1.393508630264    -0.578761871142    -1.172008714232     1.007825032230
         C           -1.287813630264     0.175883128858     0.723128285768    12.000000000000
         H           -1.183664630264     1.212949128858     0.415276285768     1.007825032230
         H           -2.325641630264     0.002479128858     1.014259285768     1.007825032230
         H           -0.655927630264     0.036198128858     1.596369285768     1.007825032230
         O            1.858031369736     0.518521128858    -0.253488714232    15.994914619570
         H            1.040514369736     0.022249128858    -0.426641714232     1.007825032230
         H            2.439933369736     0.260023128858    -0.969234714232     1.007825032230

  Charge       = 0
  Multiplicity = 1
  Basis Set: AUG-CC-PVTZ
    Blend: AUG-CC-PVTZ
  Basis Set: (AUG-CC-PVTZ AUX)
    Blend: AUG-CC-PVTZ-JKFIT

    Orbital Energies [Eh]
    ---------------------

    Doubly Occupied:

       1A    -20.526978     2A    -15.560367     3A    -11.249347
       4A     -1.313529     5A     -1.190058     6A     -0.908936
       7A     -0.684620     8A     -0.679582     9A     -0.615675
      10A     -0.568886    11A     -0.551440    12A     -0.528334
      13A     -0.472800    14A     -0.416250

  @DF-RHF Final Energy:  -171.32285908013219

   => Energetics <=

    Nuclear Repulsion Energy =             81.5158771201406154
    One-Electron Energy =                -395.1438627446315195
    Two-Electron Energy =                 142.3051265443587283
    Total Energy =                       -171.3228590801321900

  Dipole Moment: [D]
     X:    -2.4447      Y:    -1.7660      Z:    -1.0670     Total:     3.1990

      * MP2 total energy                      = -172.059974825202261
      * CCSD total energy                     = -172.087844859036267
      * CCSD(T) total energy                  = -172.113426733798889
*** Psi4 exiting successfully. Buy a developer a beer!
