                               Psi4 1.4a2.dev224

  ==> Input File <==

--------------------------------------------------------------------------
#Generated by lconvert.py for cbs job

memory 50 GB

molecule  {
0 1
  C      -0.724305   -0.704936    2.283868
  H       0.335318   -0.629943    2.053182
  H      -0.951697   -1.711990    2.625651
  H      -0.969628   -0.022080    3.093765
  C      -1.614935   -0.387429    1.104069
  O      -2.837324   -0.415022    1.194133
  N      -0.953420   -0.076404   -0.040820
  H       0.053809   -0.075567   -0.036640
  C      -1.658124    0.250094   -1.258553
  H      -2.720372    0.176944   -1.046653
  H      -1.430305    1.262963   -1.588094
  H      -1.405626   -0.444335   -2.058584
--
0 1
  O       2.131139   -0.058169   -0.156716
  H       2.696116   -0.771128   -0.461915
  H       2.710890    0.706024   -0.132818
units angstrom
no_reorient
symmetry c1
}

set {
scf_type DF
mp2_type DF
e_convergence 7
reference rhf
}

energy(cbs, corl_wfn='mp2', corl_basis='aug-cc-pv[tq]z', delta_wfn='ccsd(t)', delta_basis='aug-cc-pv[dt]z', bsse_type='cp')
--------------------------------------------------------------------------

    Molecular point group: c1
  Charge       = 0
  Multiplicity = 1
  Basis Set: AUG-CC-PVQZ
    Blend: AUG-CC-PVQZ
  Basis Set: (AUG-CC-PVQZ AUX)
    Blend: AUG-CC-PVQZ-JKFIT
  @DF-RHF Final Energy:   -76.06580021176907
    Total Energy =                        -76.0658002117690728
  Basis Set: (AUG-CC-PVQZ AUX)
    Blend: AUG-CC-PVQZ-RI
	 Reference Energy          =     -76.0658002117690728 [Eh]
	 Singles Energy            =      -0.0000000000000000 [Eh]
	 Same-Spin Energy          =      -0.0727100672734627 [Eh]
	 Opposite-Spin Energy      =      -0.2442297554269058 [Eh]
	 Correlation Energy        =      -0.3169398227003686 [Eh]
	 Total Energy              =     -76.3827400344694354 [Eh]
	 SCS Total Energy          =     -76.3831126073725102 [Eh]
    Molecular point group: c1
  Basis Set: AUG-CC-PVDZ
    Blend: AUG-CC-PVDZ
  Basis Set: (AUG-CC-PVDZ AUX)
    Blend: AUG-CC-PVDZ-JKFIT
  @DF-RHF Final Energy:   -76.04124666174226
    Total Energy =                        -76.0412466617422496
      * MP2 total energy                      =  -76.263310153487780
      * CCSD total energy                     =  -76.270810420152188
      * CCSD(T) total energy                  =  -76.276061912615432
  @DF-RHF Final Energy:   -76.06041811078254
    Total Energy =                        -76.0604181107825497
      * MP2 total energy                      =  -76.344120991109648
      * CCSD total energy                     =  -76.348714131504920
      * CCSD(T) total energy                  =  -76.357500507004247
  @DF-RHF Final Energy:   -76.06584346178205
    Total Energy =                        -76.0658434617820518
  @DF-RHF Final Energy:   -76.04169364167636
    Total Energy =                        -76.0416936416763605
      * MP2 total energy                      =  -76.264629579019513
      * CCSD total energy                     =  -76.272095498828222
      * CCSD(T) total energy                  =  -76.277472874867627
  @DF-RHF Final Energy:   -76.06051496137910
    Total Energy =                        -76.0605149613790843
      * MP2 total energy                      =  -76.345058900109038
      * CCSD total energy                     =  -76.349634639779964
      * CCSD(T) total energy                  =  -76.358459114706150
  @DF-RHF Final Energy:  -247.11790935791194
    Total Energy =                       -247.1179093579119694
  @DF-RHF Final Energy:  -247.04156264238310
    Total Energy =                       -247.0415626423830986
      * MP2 total energy                      = -247.862127221346441
      * CCSD total energy                     = -247.902787012840264
      * CCSD(T) total energy                  = -247.933781653134048
  @DF-RHF Final Energy:  -247.10252934146260
    Total Energy =                       -247.1025293414626276
      * MP2 total energy                      = -248.160450096241362
      * CCSD total energy                     = -248.191740348329176
      * CCSD(T) total energy                  = -248.236046841315158
  @DF-RHF Final Energy:  -247.11789885153482
    Total Energy =                       -247.1178988515348465
  @DF-RHF Final Energy:  -247.04136527792065
    Total Energy =                       -247.0413652779206473
      * MP2 total energy                      = -247.861328410359135
      * CCSD total energy                     = -247.902047522763752
      * CCSD(T) total energy                  = -247.932981180951231
  @DF-RHF Final Energy:  -247.10245262128950
    Total Energy =                       -247.1024526212895012
      * MP2 total energy                      = -248.159055298100753
      * CCSD total energy                     = -248.190317428558416
      * CCSD(T) total energy                  = -248.234594833570981
  @DF-RHF Final Energy:  -323.18932688056714
    Total Energy =                       -323.1893268805671369
	 Opposite-Spin Energy      =      -1.1559901982770264 [Eh]
	 Correlation Energy        =      -1.4917278212343399 [Eh]
	 Total Energy              =    -324.6810547018014859 [Eh]

	 ================> DF-SCS-MP2 Energies <==================
	-----------------------------------------------------------
	 SCS Same-Spin Scale       =       0.3333333333333333 [-]
	 SCS Opposite-Spin Scale   =       1.2000000000000000 [-]
	 SCS Same-Spin Energy      =      -0.1119125409857712 [Eh]
	 SCS Opposite-Spin Energy  =      -1.3871882379324316 [Eh]
	 SCS Correlation Energy    =      -1.4991007789182027 [Eh]
	 SCS Total Energy          =    -324.6884276594853418 [Eh]
	-----------------------------------------------------------

  Multiplicity = 1
  Basis Set: AUG-CC-PVDZ
    Blend: AUG-CC-PVDZ
  Basis Set: (AUG-CC-PVDZ AUX)
    Blend: AUG-CC-PVDZ-JKFIT
  @DF-RHF Final Energy:  -323.08877450546333
    Total Energy =                       -323.0887745054633342
      * MP2 total energy                      = -324.134178888941904
      * CCSD total energy                     = -324.181914416888446
      * CCSD(T) total energy                  = -324.218648439320475
    Molecular point group: c1

    Geometry (in Angstrom), charge = 0, multiplicity = 1:

       Center              X                  Y                   Z               Mass
    ------------   -----------------  -----------------  -----------------  -----------------
         C            0.091711738539    -0.482379745069     1.800232617704    12.000000000000
         H            1.151334738539    -0.407386745069     1.569546617704     1.007825032230
         H           -0.135680261461    -1.489433745069     2.142015617704     1.007825032230
         H           -0.153611261461     0.200476254931     2.610129617704     1.007825032230
         C           -0.798918261461    -0.164872745069     0.620433617704    12.000000000000
         O           -2.021307261461    -0.192465745069     0.710497617704    15.994914619570
         N           -0.137403261461     0.146152254931    -0.524455382296    14.003074004430
         H            0.869825738539     0.146989254931    -0.520275382296     1.007825032230
         C           -0.842107261461     0.472650254931    -1.742188382296    12.000000000000
         H           -1.904355261461     0.399500254931    -1.530288382296     1.007825032230
         H           -0.614288261461     1.485519254931    -2.071729382296     1.007825032230
         H           -0.589609261461    -0.221778745069    -2.542219382296     1.007825032230
         O            2.947155738539     0.164387254931    -0.640351382296    15.994914619570
         H            3.512132738539    -0.548571745069    -0.945550382296     1.007825032230
         H            3.526906738539     0.928580254931    -0.616453382296     1.007825032230

  Charge       = 0
  Multiplicity = 1
  Basis Set: AUG-CC-PVTZ
    Blend: AUG-CC-PVTZ
  Basis Set: (AUG-CC-PVTZ AUX)
    Blend: AUG-CC-PVTZ-JKFIT

    Orbital Energies [Eh]
    ---------------------

    Doubly Occupied:

       1A    -20.600210     2A    -20.494865     3A    -15.564853
       4A    -11.331001     5A    -11.241742     6A    -11.219333
       7A     -1.387275     8A     -1.357106     9A     -1.212271
      10A     -1.003009    11A     -0.916562    12A     -0.772952
      13A     -0.749252    14A     -0.675995    15A     -0.639836
      16A     -0.622451    17A     -0.617615    18A     -0.572914
      19A     -0.562799    20A     -0.547373    21A     -0.536071
      22A     -0.527654    23A     -0.489346    24A     -0.404744
      25A     -0.373729

  @DF-RHF Final Energy:  -323.16858833863733

   => Energetics <=

    Nuclear Repulsion Energy =            243.1396600028627688
    One-Electron Energy =                -923.7745846515321091
    Two-Electron Energy =                 357.4663363100319771
    Total Energy =                       -323.1685883386373348

  Dipole Moment: [D]
     X:     6.6990      Y:     0.4186      Z:    -1.6809     Total:     6.9194

      * MP2 total energy                      = -324.513408870842795
      * CCSD total energy                     = -324.548893401548639
      * CCSD(T) total energy                  = -324.602457915203217
*** Psi4 exiting successfully. Buy a developer a beer!
