                               Psi4 1.4a2.dev224

  ==> Input File <==

--------------------------------------------------------------------------
#Generated by lconvert.py for cbs job

memory 50 GB

molecule  {
0 1
  C       1.175593   -0.145800    0.231612
  S      -0.147763    0.408105   -0.884362
  H      -0.442197    1.535646   -0.231011
  H       0.791446   -0.327969    1.229656
  H       1.542170   -1.081878   -0.179479
  H       1.988248    0.572529    0.252180
--
0 1
  O      -1.020254   -0.992250    1.165495
  H      -0.930267   -0.553534    0.311352
  H      -1.903909   -1.363374    1.140970
units angstrom
no_reorient
symmetry c1
}

set {
scf_type DF
mp2_type DF
e_convergence 7
reference rhf
}

energy(cbs, corl_wfn='mp2', corl_basis='aug-cc-pv[tq]z', delta_wfn='ccsd(t)', delta_basis='aug-cc-pv[dt]z', bsse_type='cp')
--------------------------------------------------------------------------

    Molecular point group: c1
  Charge       = 0
  Multiplicity = 1
  Basis Set: AUG-CC-PVQZ
    Blend: AUG-CC-PVQZ
  Basis Set: (AUG-CC-PVQZ AUX)
    Blend: AUG-CC-PVQZ-JKFIT
  @DF-RHF Final Energy:   -76.06559220154365
    Total Energy =                        -76.0655922015436374
  Basis Set: (AUG-CC-PVQZ AUX)
    Blend: AUG-CC-PVQZ-RI
	 Reference Energy          =     -76.0655922015436516 [Eh]
	 Singles Energy            =      -0.0000000000000000 [Eh]
	 Same-Spin Energy          =      -0.0727480536637901 [Eh]
	 Opposite-Spin Energy      =      -0.2443577382868888 [Eh]
	 Correlation Energy        =      -0.3171057919506790 [Eh]
	 Total Energy              =     -76.3826979934943324 [Eh]
	 SCS Total Energy          =     -76.3830708387091875 [Eh]
    Molecular point group: c1
  Basis Set: AUG-CC-PVDZ
    Blend: AUG-CC-PVDZ
  Basis Set: (AUG-CC-PVDZ AUX)
    Blend: AUG-CC-PVDZ-JKFIT
  @DF-RHF Final Energy:   -76.04107092783030
    Total Energy =                        -76.0410709278302903
      * MP2 total energy                      =  -76.263330797353674
      * CCSD total energy                     =  -76.270817929240351
      * CCSD(T) total energy                  =  -76.276086443245120
  @DF-RHF Final Energy:   -76.06022020793765
    Total Energy =                        -76.0602202079376468
      * MP2 total energy                      =  -76.344089870969768
      * CCSD total energy                     =  -76.348659917878010
      * CCSD(T) total energy                  =  -76.357469334590846
  @DF-RHF Final Energy:   -76.06563961024072
    Total Energy =                        -76.0656396102407086
  @DF-RHF Final Energy:   -76.04170445548239
    Total Energy =                        -76.0417044554823889
      * MP2 total energy                      =  -76.265040596139968
      * CCSD total energy                     =  -76.272453199539981
      * CCSD(T) total energy                  =  -76.277869676389628
  @DF-RHF Final Energy:   -76.06034650126655
    Total Energy =                        -76.0603465012665367
      * MP2 total energy                      =  -76.345454499447982
      * CCSD total energy                     =  -76.349996321748108
      * CCSD(T) total energy                  =  -76.358853990786443
  @DF-RHF Final Energy:  -437.76434931230233
    Total Energy =                       -437.7643493123022722
  @DF-RHF Final Energy:  -437.73114510685269
    Total Energy =                       -437.7311451068527504
      * MP2 total energy                      = -438.047825684690167
      * CCSD total energy                     = -438.081723513969564
      * CCSD(T) total energy                  = -438.092833334019247
  @DF-RHF Final Energy:  -437.75777493192288
    Total Energy =                       -437.7577749319228815
      * MP2 total energy                      = -438.190573468655828
      * CCSD total energy                     = -438.222350718840289
      * CCSD(T) total energy                  = -438.240022119741695
  @DF-RHF Final Energy:  -437.76430896270779
    Total Energy =                       -437.7643089627077870
  @DF-RHF Final Energy:  -437.73020818214758
    Total Energy =                       -437.7302081821476349
      * MP2 total energy                      = -438.043440988973771
      * CCSD total energy                     = -438.077412140294427
      * CCSD(T) total energy                  = -438.088218890317592
  @DF-RHF Final Energy:  -437.75766627828023
    Total Energy =                       -437.7576662782802259
      * MP2 total energy                      = -438.186200213319580
      * CCSD total energy                     = -438.218260381932112
      * CCSD(T) total energy                  = -438.235785763094952
  @DF-RHF Final Energy:  -513.79102464287860
    Total Energy =                       -513.7910246428785968
	 Opposite-Spin Energy      =      -0.6340602714869706 [Eh]
	 Correlation Energy        =      -0.8192285990380863 [Eh]
	 Total Energy              =    -514.6102532419166664 [Eh]

	 ================> DF-SCS-MP2 Energies <==================
	-----------------------------------------------------------
	 SCS Same-Spin Scale       =       0.3333333333333333 [-]
	 SCS Opposite-Spin Scale   =       1.2000000000000000 [-]
	 SCS Same-Spin Energy      =      -0.0617227758503719 [Eh]
	 SCS Opposite-Spin Energy  =      -0.7608723257843647 [Eh]
	 SCS Correlation Energy    =      -0.8225951016347366 [Eh]
	 SCS Total Energy          =    -514.6136197445133575 [Eh]
	-----------------------------------------------------------

  Multiplicity = 1
  Basis Set: AUG-CC-PVDZ
    Blend: AUG-CC-PVDZ
  Basis Set: (AUG-CC-PVDZ AUX)
    Blend: AUG-CC-PVDZ-JKFIT
  @DF-RHF Final Energy:  -513.73368240580123
    Total Energy =                       -513.7336824058012326
      * MP2 total energy                      = -514.285633804708596
      * CCSD total energy                     = -514.323241956052016
      * CCSD(T) total energy                  = -514.341365313023402
    Molecular point group: c1

    Geometry (in Angstrom), charge = 0, multiplicity = 1:

       Center              X                  Y                   Z               Mass
    ------------   -----------------  -----------------  -----------------  -----------------
         C            1.264701105500    -0.057929048728     0.296903244121    12.000000000000
         S           -0.058654894500     0.495975951272    -0.819070755879    31.972071174400
         H           -0.353088894500     1.623516951272    -0.165719755879     1.007825032230
         H            0.880554105500    -0.240098048728     1.294947244121     1.007825032230
         H            1.631278105500    -0.994007048728    -0.114187755879     1.007825032230
         H            2.077356105500     0.660399951272     0.317471244121     1.007825032230
         O           -0.931145894500    -0.904379048728     1.230786244121    15.994914619570
         H           -0.841158894500    -0.465663048728     0.376643244121     1.007825032230
         H           -1.814800894500    -1.275503048728     1.206261244121     1.007825032230

  Charge       = 0
  Multiplicity = 1
  Basis Set: AUG-CC-PVTZ
    Blend: AUG-CC-PVTZ
  Basis Set: (AUG-CC-PVTZ AUX)
    Blend: AUG-CC-PVTZ-JKFIT

    Orbital Energies [Eh]
    ---------------------

    Doubly Occupied:

       1A    -91.965037     2A    -20.525543     3A    -11.251375
       4A     -8.968546     5A     -6.649701     6A     -6.648712
       7A     -6.648138     8A     -1.332874     9A     -1.053712
      10A     -0.880019    11A     -0.719302    12A     -0.621038
      13A     -0.589072    14A     -0.548860    15A     -0.533211
      16A     -0.483238    17A     -0.471981    18A     -0.370330

  @DF-RHF Final Energy:  -513.77903932731385

   => Energetics <=

    Nuclear Repulsion Energy =            119.0774942649053258
    One-Electron Energy =                -945.1916870138791182
    Two-Electron Energy =                 312.3351534216599816
    Total Energy =                       -513.7790393273137397

  Dipole Moment: [D]
     X:     0.0292      Y:     0.5942      Z:    -0.3499     Total:     0.6902

      * MP2 total energy                      = -514.512581122761617
      * CCSD total energy                     = -514.544964278454927
      * CCSD(T) total energy                  = -514.573671614711657
*** Psi4 exiting successfully. Buy a developer a beer!
