                               Psi4 1.4a2.dev224

  ==> Input File <==

--------------------------------------------------------------------------
#Generated by lconvert.py for cbs job

memory 50 GB

molecule  {
0 1
  C       1.175593   -0.145800    0.231612
  S      -0.147763    0.408105   -0.884362
  H      -0.442197    1.535646   -0.231011
  H       0.791446   -0.327969    1.229656
  H       1.542170   -1.081878   -0.179479
  H       1.988248    0.572529    0.252180
--
0 1
  O      -1.622943   -1.393742    1.575357
  H      -1.532956   -0.955026    0.721214
  H      -2.506598   -1.764866    1.550832
units angstrom
no_reorient
symmetry c1
}

set {
scf_type DF
mp2_type DF
e_convergence 7
reference rhf
}

energy(cbs, corl_wfn='mp2', corl_basis='aug-cc-pv[tq]z', delta_wfn='ccsd(t)', delta_basis='aug-cc-pv[dt]z', bsse_type='cp')
--------------------------------------------------------------------------

    Molecular point group: c1
  Charge       = 0
  Multiplicity = 1
  Basis Set: AUG-CC-PVQZ
    Blend: AUG-CC-PVQZ
  Basis Set: (AUG-CC-PVQZ AUX)
    Blend: AUG-CC-PVQZ-JKFIT
  @DF-RHF Final Energy:   -76.06559220155053
    Total Energy =                        -76.0655922015505439
  Basis Set: (AUG-CC-PVQZ AUX)
    Blend: AUG-CC-PVQZ-RI
	 Reference Energy          =     -76.0655922015505297 [Eh]
	 Singles Energy            =      -0.0000000000000000 [Eh]
	 Same-Spin Energy          =      -0.0727480536638187 [Eh]
	 Opposite-Spin Energy      =      -0.2443577382870005 [Eh]
	 Correlation Energy        =      -0.3171057919508192 [Eh]
	 Total Energy              =     -76.3826979935013526 [Eh]
	 SCS Total Energy          =     -76.3830708387162076 [Eh]
    Molecular point group: c1
  Basis Set: AUG-CC-PVDZ
    Blend: AUG-CC-PVDZ
  Basis Set: (AUG-CC-PVDZ AUX)
    Blend: AUG-CC-PVDZ-JKFIT
  @DF-RHF Final Energy:   -76.04107092783823
    Total Energy =                        -76.0410709278382342
      * MP2 total energy                      =  -76.263330797353476
      * CCSD total energy                     =  -76.270817929240152
      * CCSD(T) total energy                  =  -76.276086443244921
  @DF-RHF Final Energy:   -76.06022020793655
    Total Energy =                        -76.0602202079365384
      * MP2 total energy                      =  -76.344089870969825
      * CCSD total energy                     =  -76.348659917878052
      * CCSD(T) total energy                  =  -76.357469334590903
  @DF-RHF Final Energy:   -76.06561383324146
    Total Energy =                        -76.0656138332414571
  @DF-RHF Final Energy:   -76.04138394679252
    Total Energy =                        -76.0413839467925357
      * MP2 total energy                      =  -76.264075253825993
      * CCSD total energy                     =  -76.271526038360520
      * CCSD(T) total energy                  =  -76.276853787202128
  @DF-RHF Final Energy:   -76.06027464944412
    Total Energy =                        -76.0602746494441249
      * MP2 total energy                      =  -76.344640811918069
      * CCSD total energy                     =  -76.349201470336666
      * CCSD(T) total energy                  =  -76.358032437187674
  @DF-RHF Final Energy:  -437.76432823874103
    Total Energy =                       -437.7643282387410295
  @DF-RHF Final Energy:  -437.73070491675998
    Total Energy =                       -437.7307049167599189
      * MP2 total energy                      = -438.045436422264288
      * CCSD total energy                     = -438.079365849006649
      * CCSD(T) total energy                  = -438.090289924958370
  @DF-RHF Final Energy:  -437.75772918695611
    Total Energy =                       -437.7577291869561122
      * MP2 total energy                      = -438.187786710981982
      * CCSD total energy                     = -438.219762044654658
      * CCSD(T) total energy                  = -438.237335521796126
  @DF-RHF Final Energy:  -437.76430896252833
    Total Energy =                       -437.7643089625283324
  @DF-RHF Final Energy:  -437.73020818204458
    Total Energy =                       -437.7302081820445778
      * MP2 total energy                      = -438.043440988973487
      * CCSD total energy                     = -438.077412140294086
      * CCSD(T) total energy                  = -438.088218890317194
  @DF-RHF Final Energy:  -437.75766627824146
    Total Energy =                       -437.7576662782414587
      * MP2 total energy                      = -438.186200213320205
      * CCSD total energy                     = -438.218260381932510
      * CCSD(T) total energy                  = -438.235785763095237
  @DF-RHF Final Energy:  -513.83292177314593
    Total Energy =                       -513.8329217731459266
	 Opposite-Spin Energy      =      -0.6262596724761975 [Eh]
	 Correlation Energy        =      -0.8046259301068016 [Eh]
	 Total Energy              =    -514.6375477032527215 [Eh]

	 ================> DF-SCS-MP2 Energies <==================
	-----------------------------------------------------------
	 SCS Same-Spin Scale       =       0.3333333333333333 [-]
	 SCS Opposite-Spin Scale   =       1.2000000000000000 [-]
	 SCS Same-Spin Energy      =      -0.0594554192102014 [Eh]
	 SCS Opposite-Spin Energy  =      -0.7515116069714370 [Eh]
	 SCS Correlation Energy    =      -0.8109670261816384 [Eh]
	 SCS Total Energy          =    -514.6438887993275557 [Eh]
	-----------------------------------------------------------

  Multiplicity = 1
  Basis Set: AUG-CC-PVDZ
    Blend: AUG-CC-PVDZ
  Basis Set: (AUG-CC-PVDZ AUX)
    Blend: AUG-CC-PVDZ-JKFIT
  @DF-RHF Final Energy:  -513.77510599065602
    Total Energy =                       -513.7751059906559021
      * MP2 total energy                      = -514.315561054352770
      * CCSD total energy                     = -514.356155983984877
      * CCSD(T) total energy                  = -514.372898790056411
    Molecular point group: c1

    Geometry (in Angstrom), charge = 0, multiplicity = 1:

       Center              X                  Y                   Z               Mass
    ------------   -----------------  -----------------  -----------------  -----------------
         C            1.429132585861     0.051609907372     0.185080703136    12.000000000000
         S            0.105776585861     0.605514907372    -0.930893296864    31.972071174400
         H           -0.188657414139     1.733055907372    -0.277542296864     1.007825032230
         H            1.044985585861    -0.130559092628     1.183124703136     1.007825032230
         H            1.795709585861    -0.884468092628    -0.226010296864     1.007825032230
         H            2.241787585861     0.769938907372     0.205648703136     1.007825032230
         O           -1.369403414139    -1.196332092628     1.528825703136    15.994914619570
         H           -1.279416414139    -0.757616092628     0.674682703136     1.007825032230
         H           -2.253058414139    -1.567456092628     1.504300703136     1.007825032230

  Charge       = 0
  Multiplicity = 1
  Basis Set: AUG-CC-PVTZ
    Blend: AUG-CC-PVTZ
  Basis Set: (AUG-CC-PVTZ AUX)
    Blend: AUG-CC-PVTZ-JKFIT

    Orbital Energies [Eh]
    ---------------------

    Doubly Occupied:

       1A    -91.962221     2A    -20.554003     3A    -11.258308
       4A     -8.963557     5A     -6.644975     6A     -6.643956
       7A     -6.642950     8A     -1.340296     9A     -1.044498
      10A     -0.873013    11A     -0.705763    12A     -0.612565
      13A     -0.594618    14A     -0.575363    15A     -0.533046
      16A     -0.498544    17A     -0.467086    18A     -0.369158

  @DF-RHF Final Energy:  -513.82098837287276

   => Energetics <=

    Nuclear Repulsion Energy =            106.5703832108308404
    One-Electron Energy =                -920.2149016645256552
    Two-Electron Energy =                 299.8235300808220245
    Total Energy =                       -513.8209883728727618

  Dipole Moment: [D]
     X:    -0.0290      Y:     0.4363      Z:    -0.2066     Total:     0.4837

      * MP2 total energy                      = -514.539203518492627
      * CCSD total energy                     = -514.574886445251195
      * CCSD(T) total energy                  = -514.601936027952888
*** Psi4 exiting successfully. Buy a developer a beer!
