                               Psi4 1.4a2.dev224

  ==> Input File <==

--------------------------------------------------------------------------
#Generated by lconvert.py for cbs job

memory 50 GB

molecule  {
0 1
  C      -3.110208    1.144977   -0.620728
  S      -2.707703   -0.583358   -0.238959
  H      -1.379422   -0.424593   -0.239937
  H      -2.704740    1.438707   -1.583687
  H      -2.748134    1.812574    0.154635
  H      -4.193859    1.210314   -0.661830
--
0 1
  O       0.163358    0.041281   -0.301604
  H       0.757485   -0.249613   -0.996668
  H       0.720649    0.067732    0.479066
units angstrom
no_reorient
symmetry c1
}

set {
scf_type DF
mp2_type DF
e_convergence 7
reference rhf
}

energy(cbs, corl_wfn='mp2', corl_basis='aug-cc-pv[tq]z', delta_wfn='ccsd(t)', delta_basis='aug-cc-pv[dt]z', bsse_type='cp')
--------------------------------------------------------------------------

    Molecular point group: c1
  Charge       = 0
  Multiplicity = 1
  Basis Set: AUG-CC-PVQZ
    Blend: AUG-CC-PVQZ
  Basis Set: (AUG-CC-PVQZ AUX)
    Blend: AUG-CC-PVQZ-JKFIT
  @DF-RHF Final Energy:   -76.06576712315054
    Total Energy =                        -76.0657671231505503
  Basis Set: (AUG-CC-PVQZ AUX)
    Blend: AUG-CC-PVQZ-RI
	 Reference Energy          =     -76.0657671231505361 [Eh]
	 Singles Energy            =      -0.0000000000000000 [Eh]
	 Same-Spin Energy          =      -0.0727172105334018 [Eh]
	 Opposite-Spin Energy      =      -0.2442495921173729 [Eh]
	 Correlation Energy        =      -0.3169668026507747 [Eh]
	 Total Energy              =     -76.3827339258013041 [Eh]
	 SCS Total Energy          =     -76.3831057038691910 [Eh]
    Molecular point group: c1
  Basis Set: AUG-CC-PVDZ
    Blend: AUG-CC-PVDZ
  Basis Set: (AUG-CC-PVDZ AUX)
    Blend: AUG-CC-PVDZ-JKFIT
  @DF-RHF Final Energy:   -76.04121840375562
    Total Energy =                        -76.0412184037556216
      * MP2 total energy                      =  -76.263307352815488
      * CCSD total energy                     =  -76.270804014788197
      * CCSD(T) total energy                  =  -76.276057780378579
  @DF-RHF Final Energy:   -76.06038473834136
    Total Energy =                        -76.0603847383413552
      * MP2 total energy                      =  -76.344116117885804
      * CCSD total energy                     =  -76.348705209128767
      * CCSD(T) total energy                  =  -76.357494247477035
  @DF-RHF Final Energy:   -76.06581364115192
    Total Energy =                        -76.0658136411519195
  @DF-RHF Final Energy:   -76.04177671385486
    Total Energy =                        -76.0417767138548584
      * MP2 total energy                      =  -76.265186037192592
      * CCSD total energy                     =  -76.272623376494977
      * CCSD(T) total energy                  =  -76.278057556500457
  @DF-RHF Final Energy:   -76.06049919313236
    Total Energy =                        -76.0604991931323440
      * MP2 total energy                      =  -76.345195745311145
      * CCSD total energy                     =  -76.349745546826824
      * CCSD(T) total energy                  =  -76.358580028993956
  @DF-RHF Final Energy:  -437.76425689896013
    Total Energy =                       -437.7642568989601841
  @DF-RHF Final Energy:  -437.73038401433797
    Total Energy =                       -437.7303840143379716
      * MP2 total energy                      = -438.044856314587548
      * CCSD total energy                     = -438.078799788362801
      * CCSD(T) total energy                  = -438.089712667214428
  @DF-RHF Final Energy:  -437.75762496696814
    Total Energy =                       -437.7576249669681374
      * MP2 total energy                      = -438.188065366486114
      * CCSD total energy                     = -438.220055746454307
      * CCSD(T) total energy                  = -438.237628630924803
  @DF-RHF Final Energy:  -437.76424122507615
    Total Energy =                       -437.7642412250760913
  @DF-RHF Final Energy:  -437.73014339075553
    Total Energy =                       -437.7301433907555293
      * MP2 total energy                      = -438.043445800212169
      * CCSD total energy                     = -438.077419336887829
      * CCSD(T) total energy                  = -438.088227255094864
  @DF-RHF Final Energy:  -437.75759503407943
    Total Energy =                       -437.7575950340794293
      * MP2 total energy                      = -438.186197014155312
      * CCSD total energy                     = -438.218256765997410
      * CCSD(T) total energy                  = -438.235781586828352
  @DF-RHF Final Energy:  -513.81646939422205
    Total Energy =                       -513.8164693942220538
	 Opposite-Spin Energy      =      -0.6283944031682144 [Eh]
	 Correlation Energy        =      -0.8092911755329582 [Eh]
	 Total Energy              =    -514.6257605697550161 [Eh]

	 ================> DF-SCS-MP2 Energies <==================
	-----------------------------------------------------------
	 SCS Same-Spin Scale       =       0.3333333333333333 [-]
	 SCS Opposite-Spin Scale   =       1.2000000000000000 [-]
	 SCS Same-Spin Energy      =      -0.0602989241215813 [Eh]
	 SCS Opposite-Spin Energy  =      -0.7540732838018572 [Eh]
	 SCS Correlation Energy    =      -0.8143722079234386 [Eh]
	 SCS Total Energy          =    -514.6308416021454377 [Eh]
	-----------------------------------------------------------

  Multiplicity = 1
  Basis Set: AUG-CC-PVDZ
    Blend: AUG-CC-PVDZ
  Basis Set: (AUG-CC-PVDZ AUX)
    Blend: AUG-CC-PVDZ-JKFIT
  @DF-RHF Final Energy:  -513.75865627789642
    Total Energy =                       -513.7586562778965344
      * MP2 total energy                      = -514.302648439146196
      * CCSD total energy                     = -514.341727483672571
      * CCSD(T) total energy                  = -514.358932886648518
    Molecular point group: c1

    Geometry (in Angstrom), charge = 0, multiplicity = 1:

       Center              X                  Y                   Z               Mass
    ------------   -----------------  -----------------  -----------------  -----------------
         C           -1.127244790991     1.150519253680    -0.275594960589    12.000000000000
         S           -0.724739790991    -0.577815746320     0.106174039411    31.972071174400
         H            0.603541209009    -0.419050746320     0.105196039411     1.007825032230
         H           -0.721776790991     1.444249253680    -1.238553960589     1.007825032230
         H           -0.765170790991     1.818116253680     0.499768039411     1.007825032230
         H           -2.210895790991     1.215856253680    -0.316696960589     1.007825032230
         O            2.146321209009     0.046823253680     0.043529039411    15.994914619570
         H            2.740448209009    -0.244070746320    -0.651534960589     1.007825032230
         H            2.703612209009     0.073274253680     0.824199039411     1.007825032230

  Charge       = 0
  Multiplicity = 1
  Basis Set: AUG-CC-PVTZ
    Blend: AUG-CC-PVTZ
  Basis Set: (AUG-CC-PVTZ AUX)
    Blend: AUG-CC-PVTZ-JKFIT

    Orbital Energies [Eh]
    ---------------------

    Doubly Occupied:

       1A    -91.909759     2A    -20.599020     3A    -11.233796
       4A     -8.912629     5A     -6.594111     6A     -6.593246
       7A     -6.592304     8A     -1.392476     9A     -1.010948
      10A     -0.843399    11A     -0.750310    12A     -0.660791
      13A     -0.572638    14A     -0.570079    15A     -0.555967
      16A     -0.478110    17A     -0.417540    18A     -0.325919

  @DF-RHF Final Energy:  -513.80456550930353

   => Energetics <=

    Nuclear Repulsion Energy =            109.4865319492146227
    One-Electron Energy =                -926.5561137232019746
    Two-Electron Energy =                 303.2650162646837657
    Total Energy =                       -513.8045655093035293

  Dipole Moment: [D]
     X:     3.8189      Y:     1.1917      Z:    -0.1610     Total:     4.0038

      * MP2 total energy                      = -514.527379713668097
      * CCSD total energy                     = -514.561583389202156
      * CCSD(T) total energy                  = -514.589147281093233
*** Psi4 exiting successfully. Buy a developer a beer!
