                               Psi4 1.4a2.dev224

  ==> Input File <==

--------------------------------------------------------------------------
#Generated by lconvert.py for cbs job

memory 50 GB

molecule  {
0 1
  C      -3.110208    1.144977   -0.620728
  S      -2.707703   -0.583358   -0.238959
  H      -1.379422   -0.424593   -0.239937
  H      -2.704740    1.438707   -1.583687
  H      -2.748134    1.812574    0.154635
  H      -4.193859    1.210314   -0.661830
--
0 1
  O       0.824550    0.240941   -0.328033
  H       1.418677   -0.049953   -1.023097
  H       1.381841    0.267392    0.452637
units angstrom
no_reorient
symmetry c1
}

set {
scf_type DF
mp2_type DF
e_convergence 7
reference rhf
}

energy(cbs, corl_wfn='mp2', corl_basis='aug-cc-pv[tq]z', delta_wfn='ccsd(t)', delta_basis='aug-cc-pv[dt]z', bsse_type='cp')
--------------------------------------------------------------------------

    Molecular point group: c1
  Charge       = 0
  Multiplicity = 1
  Basis Set: AUG-CC-PVQZ
    Blend: AUG-CC-PVQZ
  Basis Set: (AUG-CC-PVQZ AUX)
    Blend: AUG-CC-PVQZ-JKFIT
  @DF-RHF Final Energy:   -76.06576712314506
    Total Energy =                        -76.0657671231450649
  Basis Set: (AUG-CC-PVQZ AUX)
    Blend: AUG-CC-PVQZ-RI
	 Reference Energy          =     -76.0657671231450649 [Eh]
	 Singles Energy            =      -0.0000000000000000 [Eh]
	 Same-Spin Energy          =      -0.0727172105334247 [Eh]
	 Opposite-Spin Energy      =      -0.2442495921174500 [Eh]
	 Correlation Energy        =      -0.3169668026508747 [Eh]
	 Total Energy              =     -76.3827339257959466 [Eh]
	 SCS Total Energy          =     -76.3831057038638193 [Eh]
    Molecular point group: c1
  Basis Set: AUG-CC-PVDZ
    Blend: AUG-CC-PVDZ
  Basis Set: (AUG-CC-PVDZ AUX)
    Blend: AUG-CC-PVDZ-JKFIT
  @DF-RHF Final Energy:   -76.04121840375178
    Total Energy =                        -76.0412184037517846
      * MP2 total energy                      =  -76.263307352815843
      * CCSD total energy                     =  -76.270804014788567
      * CCSD(T) total energy                  =  -76.276057780378949
  @DF-RHF Final Energy:   -76.06038473834829
    Total Energy =                        -76.0603847383482901
      * MP2 total energy                      =  -76.344116117885861
      * CCSD total energy                     =  -76.348705209128866
      * CCSD(T) total energy                  =  -76.357494247477135
  @DF-RHF Final Energy:   -76.06579392590993
    Total Energy =                        -76.0657939259099294
  @DF-RHF Final Energy:   -76.04142970478811
    Total Energy =                        -76.0414297047881291
      * MP2 total energy                      =  -76.264020792438956
      * CCSD total energy                     =  -76.271496048687283
      * CCSD(T) total energy                  =  -76.276825386736476
  @DF-RHF Final Energy:   -76.06044079226947
    Total Energy =                        -76.0604407922694890
      * MP2 total energy                      =  -76.344547427894000
      * CCSD total energy                     =  -76.349122193237648
      * CCSD(T) total energy                  =  -76.357933760970610
  @DF-RHF Final Energy:  -437.76425025071364
    Total Energy =                       -437.7642502507136442
  @DF-RHF Final Energy:  -437.73025412646047
    Total Energy =                       -437.7302541264604656
      * MP2 total energy                      = -438.044049097924983
      * CCSD total energy                     = -438.078003989610238
      * CCSD(T) total energy                  = -438.088856674246756
  @DF-RHF Final Energy:  -437.75761171101010
    Total Energy =                       -437.7576117110100995
      * MP2 total energy                      = -438.186948934520501
      * CCSD total energy                     = -438.218984260590787
      * CCSD(T) total energy                  = -438.236528274903094
  @DF-RHF Final Energy:  -437.76424122493091
    Total Energy =                       -437.7642412249309132
  @DF-RHF Final Energy:  -437.73014339083699
    Total Energy =                       -437.7301433908370427
      * MP2 total energy                      = -438.043445800211202
      * CCSD total energy                     = -438.077419336886919
      * CCSD(T) total energy                  = -438.088227255093898
  @DF-RHF Final Energy:  -437.75759503420733
    Total Energy =                       -437.7575950342073270
      * MP2 total energy                      = -438.186197014157244
      * CCSD total energy                     = -438.218256765999399
      * CCSD(T) total energy                  = -438.235781586830342
  @DF-RHF Final Energy:  -513.83165024719608
    Total Energy =                       -513.8316502471961940
	 Opposite-Spin Energy      =      -0.6250548336280457 [Eh]
	 Correlation Energy        =      -0.8024568253731164 [Eh]
	 Total Energy              =    -514.6341070725692362 [Eh]

	 ================> DF-SCS-MP2 Energies <==================
	-----------------------------------------------------------
	 SCS Same-Spin Scale       =       0.3333333333333333 [-]
	 SCS Opposite-Spin Scale   =       1.2000000000000000 [-]
	 SCS Same-Spin Energy      =      -0.0591339972483569 [Eh]
	 SCS Opposite-Spin Energy  =      -0.7500658003536548 [Eh]
	 SCS Correlation Energy    =      -0.8091997976020117 [Eh]
	 SCS Total Energy          =    -514.6408500447980714 [Eh]
	-----------------------------------------------------------

  Multiplicity = 1
  Basis Set: AUG-CC-PVDZ
    Blend: AUG-CC-PVDZ
  Basis Set: (AUG-CC-PVDZ AUX)
    Blend: AUG-CC-PVDZ-JKFIT
  @DF-RHF Final Energy:  -513.77343602832423
    Total Energy =                       -513.7734360283241131
      * MP2 total energy                      = -514.311592351940135
      * CCSD total energy                     = -514.352499210245014
      * CCSD(T) total energy                  = -514.368954003475096
    Molecular point group: c1

    Geometry (in Angstrom), charge = 0, multiplicity = 1:

       Center              X                  Y                   Z               Mass
    ------------   -----------------  -----------------  -----------------  -----------------
         C           -1.307637629359     1.096046068723    -0.268384343514    12.000000000000
         S           -0.905132629359    -0.632288931277     0.113384656486    31.972071174400
         H            0.423148370641    -0.473523931277     0.112406656486     1.007825032230
         H           -0.902169629359     1.389776068723    -1.231343343514     1.007825032230
         H           -0.945563629359     1.763643068723     0.506978656486     1.007825032230
         H           -2.391288629359     1.161383068723    -0.309486343514     1.007825032230
         O            2.627120370641     0.192010068723     0.024310656486    15.994914619570
         H            3.221247370641    -0.098883931277    -0.670753343514     1.007825032230
         H            3.184411370641     0.218461068723     0.804980656486     1.007825032230

  Charge       = 0
  Multiplicity = 1
  Basis Set: AUG-CC-PVTZ
    Blend: AUG-CC-PVTZ
  Basis Set: (AUG-CC-PVTZ AUX)
    Blend: AUG-CC-PVTZ-JKFIT

    Orbital Energies [Eh]
    ---------------------

    Doubly Occupied:

       1A    -91.933548     2A    -20.581117     3A    -11.243034
       4A     -8.935043     5A     -6.616480     6A     -6.615537
       7A     -6.614516     8A     -1.367309     9A     -1.022360
      10A     -0.851255    11A     -0.728905    12A     -0.610997
      13A     -0.587751    14A     -0.578716    15A     -0.528497
      16A     -0.505829    17A     -0.442363    18A     -0.340448

  @DF-RHF Final Energy:  -513.81966851861932

   => Energetics <=

    Nuclear Repulsion Energy =            101.7310789246937475
    One-Electron Energy =                -910.8940873812380232
    Two-Electron Energy =                 295.3433399379249522
    Total Energy =                       -513.8196685186193235

  Dipole Moment: [D]
     X:     2.9143      Y:     1.1773      Z:    -0.1805     Total:     3.1483

      * MP2 total energy                      = -514.535228577513635
      * CCSD total energy                     = -514.571306715923129
      * CCSD(T) total energy                  = -514.598017637717703
*** Psi4 exiting successfully. Buy a developer a beer!
