                               Psi4 1.4a2.dev224

  ==> Input File <==

--------------------------------------------------------------------------
#Generated by lconvert.py for cbs job

memory 50 GB

molecule  {
0 1
  C      -3.546776   -0.481931    0.591520
  O      -1.627661    0.158046   -1.132406
  S      -2.263925    0.691077    0.115119
  C      -1.152926    0.298441    1.478987
  H      -3.959576   -0.193985    1.555567
  H      -4.312989   -0.438873   -0.178064
  H      -3.103695   -1.475720    0.616603
  H      -1.627579    0.566204    2.420108
  H      -0.916338   -0.762663    1.427498
  H      -0.250773    0.885377    1.327912
--
0 1
  O      -3.703393    2.290846    2.591135
  H      -3.529850    2.717673    1.747841
  H      -4.121519    2.976509    3.116180
units angstrom
no_reorient
symmetry c1
}

set {
scf_type DF
mp2_type DF
e_convergence 7
reference rhf
}

energy(cbs, corl_wfn='mp2', corl_basis='aug-cc-pv[tq]z', delta_wfn='ccsd(t)', delta_basis='aug-cc-pv[dt]z', bsse_type='cp')
--------------------------------------------------------------------------

    Molecular point group: c1
  Charge       = 0
  Multiplicity = 1
  Basis Set: AUG-CC-PVQZ
    Blend: AUG-CC-PVQZ
  Basis Set: (AUG-CC-PVQZ AUX)
    Blend: AUG-CC-PVQZ-JKFIT
  @DF-RHF Final Energy:   -76.06573040308012
    Total Energy =                        -76.0657304030801384
  Basis Set: (AUG-CC-PVQZ AUX)
    Blend: AUG-CC-PVQZ-RI
	 Reference Energy          =     -76.0657304030801242 [Eh]
	 Singles Energy            =      -0.0000000000000000 [Eh]
	 Same-Spin Energy          =      -0.0727241846268853 [Eh]
	 Opposite-Spin Energy      =      -0.2442766020155340 [Eh]
	 Correlation Energy        =      -0.3170007866424193 [Eh]
	 Total Energy              =     -76.3827311897225485 [Eh]
	 SCS Total Energy          =     -76.3831037203743932 [Eh]
    Molecular point group: c1
  Basis Set: AUG-CC-PVDZ
    Blend: AUG-CC-PVDZ
  Basis Set: (AUG-CC-PVDZ AUX)
    Blend: AUG-CC-PVDZ-JKFIT
  @DF-RHF Final Energy:   -76.04118885257415
    Total Energy =                        -76.0411888525741659
      * MP2 total energy                      =  -76.263323553311736
      * CCSD total energy                     =  -76.270818734086902
      * CCSD(T) total energy                  =  -76.276076395260588
  @DF-RHF Final Energy:   -76.06035176045654
    Total Energy =                        -76.0603517604565411
      * MP2 total energy                      =  -76.344116115185969
      * CCSD total energy                     =  -76.348700676642835
      * CCSD(T) total energy                  =  -76.357495349514593
  @DF-RHF Final Energy:   -76.06576501055284
    Total Energy =                        -76.0657650105528376
  @DF-RHF Final Energy:   -76.04158116356271
    Total Energy =                        -76.0415811635627108
      * MP2 total energy                      =  -76.264261459440277
      * CCSD total energy                     =  -76.271714598122244
      * CCSD(T) total energy                  =  -76.277050689196400
  @DF-RHF Final Energy:   -76.06043653469798
    Total Energy =                        -76.0604365346979989
      * MP2 total energy                      =  -76.344682106162665
      * CCSD total energy                     =  -76.349245719719207
      * CCSD(T) total energy                  =  -76.358068371688134
  @DF-RHF Final Energy:  -551.67136906116468
    Total Energy =                       -551.6713690611645688
  @DF-RHF Final Energy:  -551.58175709278589
    Total Energy =                       -551.5817570927858924
      * MP2 total energy                      = -552.257713363135167
      * CCSD total energy                     = -552.297462593079331
      * CCSD(T) total energy                  = -552.323303364290950
  @DF-RHF Final Energy:  -551.65360279016966
    Total Energy =                       -551.6536027901696571
      * MP2 total energy                      = -552.547159277938931
      * CCSD total energy                     = -552.579481118912099
      * CCSD(T) total energy                  = -552.618109466238025
  @DF-RHF Final Energy:  -551.67133634185143
    Total Energy =                       -551.6713363418514291
  @DF-RHF Final Energy:  -551.58113403134143
    Total Energy =                       -551.5811340313414348
      * MP2 total energy                      = -552.256331931267141
      * CCSD total energy                     = -552.296117745305992
      * CCSD(T) total energy                  = -552.321878765004612
  @DF-RHF Final Energy:  -551.65348969318734
    Total Energy =                       -551.6534896931873391
      * MP2 total energy                      = -552.546014697542205
      * CCSD total energy                     = -552.578363411704572
      * CCSD(T) total energy                  = -552.616955708588762
  @DF-RHF Final Energy:  -627.74044976119194
    Total Energy =                       -627.7404497611919396
	 Opposite-Spin Energy      =      -1.0173513160270817 [Eh]
	 Correlation Energy        =      -1.3185574653533916 [Eh]
	 Total Energy              =    -629.0590072265453045 [Eh]

	 ================> DF-SCS-MP2 Energies <==================
	-----------------------------------------------------------
	 SCS Same-Spin Scale       =       0.3333333333333333 [-]
	 SCS Opposite-Spin Scale   =       1.2000000000000000 [-]
	 SCS Same-Spin Energy      =      -0.1004020497754366 [Eh]
	 SCS Opposite-Spin Energy  =      -1.2208215792324981 [Eh]
	 SCS Correlation Energy    =      -1.3212236290079347 [Eh]
	 SCS Total Energy          =    -629.0616733901998714 [Eh]
	-----------------------------------------------------------

  Multiplicity = 1
  Basis Set: AUG-CC-PVDZ
    Blend: AUG-CC-PVDZ
  Basis Set: (AUG-CC-PVDZ AUX)
    Blend: AUG-CC-PVDZ-JKFIT
  @DF-RHF Final Energy:  -627.62671312339614
    Total Energy =                       -627.6267131233961436
      * MP2 total energy                      = -628.527876009586635
      * CCSD total energy                     = -628.574567566687733
      * CCSD(T) total energy                  = -628.606152656614199
    Molecular point group: c1

    Geometry (in Angstrom), charge = 0, multiplicity = 1:

       Center              X                  Y                   Z               Mass
    ------------   -----------------  -----------------  -----------------  -----------------
         C           -1.088636395056    -1.141877902227    -0.074838386476    12.000000000000
         O            0.830478604944    -0.501900902227    -1.798764386476    15.994914619570
         S            0.194214604944     0.031130097773    -0.551239386476    31.972071174400
         C            1.305213604944    -0.361505902227     0.812628613524    12.000000000000
         H           -1.501436395056    -0.853931902227     0.889208613524     1.007825032230
         H           -1.854849395056    -1.098819902227    -0.844422386476     1.007825032230
         H           -0.645555395056    -2.135666902227    -0.049755386476     1.007825032230
         H            0.830560604944    -0.093742902227     1.753749613524     1.007825032230
         H            1.541801604944    -1.422609902227     0.761139613524     1.007825032230
         H            2.207366604944     0.225430097773     0.661553613524     1.007825032230
         O           -1.245253395056     1.630899097773     1.924776613524    15.994914619570
         H           -1.071710395056     2.057726097773     1.081482613524     1.007825032230
         H           -1.663379395056     2.316562097773     2.449821613524     1.007825032230

  Charge       = 0
  Multiplicity = 1
  Basis Set: AUG-CC-PVTZ
    Blend: AUG-CC-PVTZ
  Basis Set: (AUG-CC-PVTZ AUX)
    Blend: AUG-CC-PVTZ-JKFIT

    Orbital Energies [Eh]
    ---------------------

    Doubly Occupied:

       1A    -92.063722     2A    -20.584006     3A    -20.497708
       4A    -11.252589     5A    -11.252577     6A     -9.050611
       7A     -6.732397     8A     -6.732213     9A     -6.730864
      10A     -1.370454    11A     -1.328610    12A     -1.059660
      13A     -0.968187    14A     -0.809789    15A     -0.733999
      16A     -0.638281    17A     -0.625966    18A     -0.613781
      19A     -0.599893    20A     -0.579758    21A     -0.555754
      22A     -0.537941    23A     -0.526822    24A     -0.508807
      25A     -0.412637    26A     -0.364087

  @DF-RHF Final Energy:  -627.71735350832921

   => Energetics <=

    Nuclear Repulsion Energy =            255.0991324246247416
    One-Electron Energy =               -1371.3707475839064500
    Two-Electron Energy =                 488.5542616509524692
    Total Energy =                       -627.7173535083293245

  Dipole Moment: [D]
     X:    -2.0917      Y:     1.6432      Z:     4.1975     Total:     4.9693

      * MP2 total energy                      = -628.898207107870007
      * CCSD total energy                     = -628.934561042319501
      * CCSD(T) total energy                  = -628.982522124756429
*** Psi4 exiting successfully. Buy a developer a beer!
