                               Psi4 1.4a2.dev224

  ==> Input File <==

--------------------------------------------------------------------------
#Generated by lconvert.py for cbs job

memory 50 GB

molecule  {
-2 1
  P      -0.321200   -0.025860    0.314425
  O       1.132515    0.129154    0.830848
  O      -0.696138    1.645484    0.021781
  O      -1.299463   -0.466424    1.414615
  O      -0.493909   -0.705976   -1.035359
  H       0.114111    2.006678    0.392977
--
0 1
  O       0.251469   -0.474507    3.007944
  H       0.747055   -0.230879    2.193317
  H      -0.595572   -0.534893    2.507262
units angstrom
no_reorient
symmetry c1
}

set {
scf_type DF
mp2_type DF
e_convergence 7
reference rhf
}

energy(cbs, corl_wfn='mp2', corl_basis='aug-cc-pv[tq]z', delta_wfn='ccsd(t)', delta_basis='aug-cc-pv[dt]z', bsse_type='cp')
--------------------------------------------------------------------------

    Molecular point group: c1
  Charge       = 0
  Multiplicity = 1
  Basis Set: AUG-CC-PVQZ
    Blend: AUG-CC-PVQZ
  Basis Set: (AUG-CC-PVQZ AUX)
    Blend: AUG-CC-PVQZ-JKFIT
  @DF-RHF Final Energy:   -76.05782389859192
    Total Energy =                        -76.0578238985919199
  Basis Set: (AUG-CC-PVQZ AUX)
    Blend: AUG-CC-PVQZ-RI
	 Reference Energy          =     -76.0578238985919199 [Eh]
	 Singles Energy            =      -0.0000000000000000 [Eh]
	 Same-Spin Energy          =      -0.0735662723715531 [Eh]
	 Opposite-Spin Energy      =      -0.2465635162834003 [Eh]
	 Correlation Energy        =      -0.3201297886549534 [Eh]
	 Total Energy              =     -76.3779536872468725 [Eh]
	 SCS Total Energy          =     -76.3782222089225229 [Eh]
    Molecular point group: c1
  Basis Set: AUG-CC-PVDZ
    Blend: AUG-CC-PVDZ
  Basis Set: (AUG-CC-PVDZ AUX)
    Blend: AUG-CC-PVDZ-JKFIT
  @DF-RHF Final Energy:   -76.03373392176842
    Total Energy =                        -76.0337339217684161
      * MP2 total energy                      =  -76.259320481142240
      * CCSD total energy                     =  -76.266425747188137
      * CCSD(T) total energy                  =  -76.271988367251112
  @DF-RHF Final Energy:   -76.05255317367673
    Total Energy =                        -76.0525531736767277
      * MP2 total energy                      =  -76.339541461279353
      * CCSD total energy                     =  -76.343598109320212
      * CCSD(T) total energy                  =  -76.352786479358286
  @DF-RHF Final Energy:   -76.05787971894340
    Total Energy =                        -76.0578797189433971
  @DF-RHF Final Energy:   -76.03428456413714
    Total Energy =                        -76.0342845641371241
      * MP2 total energy                      =  -76.261651569159156
      * CCSD total energy                     =  -76.268620664211198
      * CCSD(T) total energy                  =  -76.274409103957623
  @DF-RHF Final Energy:   -76.05271930498174
    Total Energy =                        -76.0527193049817356
      * MP2 total energy                      =  -76.341609639825748
      * CCSD total energy                     =  -76.345648329469725
      * CCSD(T) total energy                  =  -76.354899858534665
  @DF-RHF Final Energy:  -640.95333102748600
    Total Energy =                       -640.9533310274860014
  @DF-RHF Final Energy:  -640.79734416134954
    Total Energy =                       -640.7973441613495424
      * MP2 total energy                      = -641.785806409855240
      * CCSD total energy                     = -641.781918789675387
      * CCSD(T) total energy                  = -641.818028703885602
  @DF-RHF Final Energy:  -640.92198457743200
    Total Energy =                       -640.9219845774319992
      * MP2 total energy                      = -642.204865493047805
      * CCSD total energy                     = -642.189659045513736
      * CCSD(T) total energy                  = -642.244224876739622
  @DF-RHF Final Energy:  -640.95317724136964
    Total Energy =                       -640.9531772413696444
  @DF-RHF Final Energy:  -640.79557835510263
    Total Energy =                       -640.7955783551026343
      * MP2 total energy                      = -641.778746655688110
      * CCSD total energy                     = -641.774983132220314
      * CCSD(T) total energy                  = -641.810321210133793
  @DF-RHF Final Energy:  -640.92148755771314
    Total Energy =                       -640.9214875577131352
      * MP2 total energy                      = -642.198150449316017
      * CCSD total energy                     = -642.183196550607477
      * CCSD(T) total energy                  = -642.237479694501872
  @DF-RHF Final Energy:  -717.01473264869890
    Total Energy =                       -717.0147326486988959
	 Opposite-Spin Energy      =      -1.3176895964782234 [Eh]
	 Correlation Energy        =      -1.7620110188602034 [Eh]
	 Total Energy              =    -718.7767436675591171 [Eh]

	 ================> DF-SCS-MP2 Energies <==================
	-----------------------------------------------------------
	 SCS Same-Spin Scale       =       0.3333333333333333 [-]
	 SCS Opposite-Spin Scale   =       1.2000000000000000 [-]
	 SCS Same-Spin Energy      =      -0.1481071407939933 [Eh]
	 SCS Opposite-Spin Energy  =      -1.5812275157738680 [Eh]
	 SCS Correlation Energy    =      -1.7293346565678613 [Eh]
	 SCS Total Energy          =    -718.7440673052667535 [Eh]
	-----------------------------------------------------------

  Multiplicity = 1
  Basis Set: AUG-CC-PVDZ
    Blend: AUG-CC-PVDZ
  Basis Set: (AUG-CC-PVDZ AUX)
    Blend: AUG-CC-PVDZ-JKFIT
  @DF-RHF Final Energy:  -716.83393698473139
    Total Energy =                       -716.8339369847313947
      * MP2 total energy                      = -718.055652243715826
      * CCSD total energy                     = -718.056183874955650
      * CCSD(T) total energy                  = -718.099254890993166
    Molecular point group: c1

    Geometry (in Angstrom), charge = -2, multiplicity = 1:

       Center              X                  Y                   Z               Mass
    ------------   -----------------  -----------------  -----------------  -----------------
         P           -0.081106471559    -0.047731031786    -0.411088099009    30.973761998420
         O            1.372608528441     0.107282968214     0.105334900991    15.994914619570
         O           -0.456044471559     1.623612968214    -0.703732099009    15.994914619570
         O           -1.059369471559    -0.488295031786     0.689101900991    15.994914619570
         O           -0.253815471559    -0.727847031786    -1.760872099009    15.994914619570
         H            0.354204528441     1.984806968214    -0.332536099009     1.007825032230
         O            0.491562528441    -0.496378031786     2.282430900991    15.994914619570
         H            0.987148528441    -0.252750031786     1.467803900991     1.007825032230
         H           -0.355478471559    -0.556764031786     1.781748900991     1.007825032230

  Charge       = -2
  Multiplicity = 1
  Basis Set: AUG-CC-PVTZ
    Blend: AUG-CC-PVTZ
  Basis Set: (AUG-CC-PVTZ AUX)
    Blend: AUG-CC-PVTZ-JKFIT

    Orbital Energies [Eh]
    ---------------------

    Doubly Occupied:

       1A    -79.695926     2A    -20.220061     3A    -20.143108
       4A    -20.137176     5A    -20.132015     6A    -20.115627
       7A     -7.211809     8A     -5.110857     9A     -5.109201
      10A     -5.108980    11A     -1.030311    12A     -0.974700
      13A     -0.916112    14A     -0.904119    15A     -0.874845
      16A     -0.387118    17A     -0.323746    18A     -0.312699
      19A     -0.266823    20A     -0.253470    21A     -0.213635
      22A     -0.185173    23A     -0.164282    24A     -0.128161
      25A     -0.119569    26A     -0.088210    27A     -0.084221
      28A     -0.075445    29A     -0.061653    30A     -0.045605

  @DF-RHF Final Energy:  -716.97802129555964

   => Energetics <=

    Nuclear Repulsion Energy =            353.8444758314846581
    One-Electron Energy =               -1720.8556697325302594
    Two-Electron Energy =                 650.0331726054859018
    Total Energy =                       -716.9780212955596426

  Dipole Moment: [D]
     X:    -0.0779      Y:     2.6184      Z:    -1.3775     Total:     2.9597

      * MP2 total energy                      = -718.561041023529583
      * CCSD total energy                     = -718.547485718191410
      * CCSD(T) total energy                  = -718.613023162157560
*** Psi4 exiting successfully. Buy a developer a beer!
