                               Psi4 1.4a2.dev224

  ==> Input File <==

--------------------------------------------------------------------------
#Generated by lconvert.py for cbs job

memory 50 GB

molecule  {
-2 1
  P      -0.321200   -0.025860    0.314425
  O       1.132515    0.129154    0.830848
  O      -0.696138    1.645484    0.021781
  O      -1.299463   -0.466424    1.414615
  O      -0.493909   -0.705976   -1.035359
  H       0.114111    2.006678    0.392977
--
0 1
  O       0.553136   -0.503851    3.476221
  H       1.048722   -0.260223    2.661594
  H      -0.293905   -0.564237    2.975539
units angstrom
no_reorient
symmetry c1
}

set {
scf_type DF
mp2_type DF
e_convergence 7
reference rhf
}

energy(cbs, corl_wfn='mp2', corl_basis='aug-cc-pv[tq]z', delta_wfn='ccsd(t)', delta_basis='aug-cc-pv[dt]z', bsse_type='cp')
--------------------------------------------------------------------------

    Molecular point group: c1
  Charge       = 0
  Multiplicity = 1
  Basis Set: AUG-CC-PVQZ
    Blend: AUG-CC-PVQZ
  Basis Set: (AUG-CC-PVQZ AUX)
    Blend: AUG-CC-PVQZ-JKFIT
  @DF-RHF Final Energy:   -76.05782389861611
    Total Energy =                        -76.0578238986161068
  Basis Set: (AUG-CC-PVQZ AUX)
    Blend: AUG-CC-PVQZ-RI
	 Reference Energy          =     -76.0578238986161068 [Eh]
	 Singles Energy            =      -0.0000000000000000 [Eh]
	 Same-Spin Energy          =      -0.0735662723715690 [Eh]
	 Opposite-Spin Energy      =      -0.2465635162835629 [Eh]
	 Correlation Energy        =      -0.3201297886551319 [Eh]
	 Total Energy              =     -76.3779536872712441 [Eh]
	 SCS Total Energy          =     -76.3782222089469087 [Eh]
    Molecular point group: c1
  Basis Set: AUG-CC-PVDZ
    Blend: AUG-CC-PVDZ
  Basis Set: (AUG-CC-PVDZ AUX)
    Blend: AUG-CC-PVDZ-JKFIT
  @DF-RHF Final Energy:   -76.03373392176351
    Total Energy =                        -76.0337339217635133
      * MP2 total energy                      =  -76.259320481142552
      * CCSD total energy                     =  -76.266425747188450
      * CCSD(T) total energy                  =  -76.271988367251438
  @DF-RHF Final Energy:   -76.05255317365877
    Total Energy =                        -76.0525531736587652
      * MP2 total energy                      =  -76.339541461279254
      * CCSD total energy                     =  -76.343598109320112
      * CCSD(T) total energy                  =  -76.352786479358187
  @DF-RHF Final Energy:   -76.05786042278174
    Total Energy =                        -76.0578604227817436
  @DF-RHF Final Energy:   -76.03401216316996
    Total Energy =                        -76.0340121631699617
      * MP2 total energy                      =  -76.260407012219275
      * CCSD total energy                     =  -76.267457725699330
      * CCSD(T) total energy                  =  -76.273141539011732
  @DF-RHF Final Energy:   -76.05263804791338
    Total Energy =                        -76.0526380479133763
      * MP2 total energy                      =  -76.340718805686890
      * CCSD total energy                     =  -76.344776738936801
      * CCSD(T) total energy                  =  -76.354002383737964
  @DF-RHF Final Energy:  -640.95327035287914
    Total Energy =                       -640.9532703528791444
  @DF-RHF Final Energy:  -640.79653592935676
    Total Energy =                       -640.7965359293567644
      * MP2 total energy                      = -641.781864001699887
      * CCSD total energy                     = -641.778051370840103
      * CCSD(T) total energy                  = -641.813798384204233
  @DF-RHF Final Energy:  -640.92175772701000
    Total Energy =                       -640.9217577270100037
      * MP2 total energy                      = -642.201522214656279
      * CCSD total energy                     = -642.186481402833351
      * CCSD(T) total energy                  = -642.240918206613514
  @DF-RHF Final Energy:  -640.95317724370079
    Total Energy =                       -640.9531772437007930
  @DF-RHF Final Energy:  -640.79557835556739
    Total Energy =                       -640.7955783555673861
      * MP2 total energy                      = -641.778746655683676
      * CCSD total energy                     = -641.774983132216221
      * CCSD(T) total energy                  = -641.810321210129359
  @DF-RHF Final Energy:  -640.92148755734240
    Total Energy =                       -640.9214875573424024
      * MP2 total energy                      = -642.198150449313630
      * CCSD total energy                     = -642.183196550603839
      * CCSD(T) total energy                  = -642.237479694498006
  @DF-RHF Final Energy:  -717.06055481855913
    Total Energy =                       -717.0605548185591260
	 Opposite-Spin Energy      =      -1.3128355280056694 [Eh]
	 Correlation Energy        =      -1.7514320742266860 [Eh]
	 Total Energy              =    -718.8119868927858533 [Eh]

	 ================> DF-SCS-MP2 Energies <==================
	-----------------------------------------------------------
	 SCS Same-Spin Scale       =       0.3333333333333333 [-]
	 SCS Opposite-Spin Scale   =       1.2000000000000000 [-]
	 SCS Same-Spin Energy      =      -0.1461988487403389 [Eh]
	 SCS Opposite-Spin Energy  =      -1.5754026336068032 [Eh]
	 SCS Correlation Energy    =      -1.7216014823471422 [Eh]
	 SCS Total Energy          =    -718.7821563009063084 [Eh]
	-----------------------------------------------------------

  Multiplicity = 1
  Basis Set: AUG-CC-PVDZ
    Blend: AUG-CC-PVDZ
  Basis Set: (AUG-CC-PVDZ AUX)
    Blend: AUG-CC-PVDZ-JKFIT
  @DF-RHF Final Energy:  -716.87985663772474
    Total Energy =                       -716.8798566377247425
      * MP2 total energy                      = -718.093687456342423
      * CCSD total energy                     = -718.096277411119104
      * CCSD(T) total energy                  = -718.138413835337701
    Molecular point group: c1

    Geometry (in Angstrom), charge = -2, multiplicity = 1:

       Center              X                  Y                   Z               Mass
    ------------   -----------------  -----------------  -----------------  -----------------
         P           -0.128777847554    -0.043093902577    -0.485088267860    30.973761998420
         O            1.324937152446     0.111920097423     0.031334732140    15.994914619570
         O           -0.503715847554     1.628250097423    -0.777732267860    15.994914619570
         O           -1.107040847554    -0.483657902577     0.615101732140    15.994914619570
         O           -0.301486847554    -0.723209902577    -1.834872267860    15.994914619570
         H            0.306533152446     1.989444097423    -0.406536267860     1.007825032230
         O            0.745558152446    -0.521084902577     2.676707732140    15.994914619570
         H            1.241144152446    -0.277456902577     1.862080732140     1.007825032230
         H           -0.101482847554    -0.581470902577     2.176025732140     1.007825032230

  Charge       = -2
  Multiplicity = 1
  Basis Set: AUG-CC-PVTZ
    Blend: AUG-CC-PVTZ
  Basis Set: (AUG-CC-PVTZ AUX)
    Blend: AUG-CC-PVTZ-JKFIT

    Orbital Energies [Eh]
    ---------------------

    Doubly Occupied:

       1A    -79.681764     2A    -20.212133     3A    -20.211476
       4A    -20.132413     5A    -20.127343     6A    -20.122330
       7A     -7.197127     8A     -5.096320     9A     -5.094519
      10A     -5.094230    11A     -1.013485    12A     -0.995575
      13A     -0.930876    14A     -0.876663    15A     -0.872551
      16A     -0.369684    17A     -0.334208    18A     -0.302074
      19A     -0.272348    20A     -0.242563    21A     -0.220288
      22A     -0.195100    23A     -0.161922    24A     -0.157305
      25A     -0.106596    26A     -0.105447    27A     -0.101317
      28A     -0.071415    29A     -0.059994    30A     -0.041100

  @DF-RHF Final Energy:  -717.02367580293401

   => Energetics <=

    Nuclear Repulsion Energy =            339.3824356428183933
    One-Electron Energy =               -1692.0118923699774314
    Two-Electron Energy =                 635.6057809242250869
    Total Energy =                       -717.0236758029340081

  Dipole Moment: [D]
     X:     0.5576      Y:     2.3727      Z:     0.3073     Total:     2.4566

      * MP2 total energy                      = -718.595741811886001
      * CCSD total energy                     = -718.584170897919194
      * CCSD(T) total energy                  = -718.648785298285475
*** Psi4 exiting successfully. Buy a developer a beer!
