                               Psi4 1.4a2.dev224

  ==> Input File <==

--------------------------------------------------------------------------
#Generated by lconvert.py for cbs job

memory 50 GB

molecule  {
0 1
  P      -0.330456    0.164634    0.264146
  O       1.207781    0.080239    0.653429
  O      -0.409690    1.498144   -0.614191
  O      -1.256717    0.048350    1.408031
  O      -0.596943   -0.936715   -0.851177
  H      -0.273362    2.285121   -0.076063
  H       0.051386   -0.902002   -1.562754
  H       1.287548   -0.331858    1.545247
--
0 1
  O       0.887212   -0.813695    2.617135
  H       1.047090   -0.498502    3.508127
  H      -0.016228   -0.528229    2.399742
units angstrom
no_reorient
symmetry c1
}

set {
scf_type DF
mp2_type DF
e_convergence 7
reference rhf
}

energy(cbs, corl_wfn='mp2', corl_basis='aug-cc-pv[tq]z', delta_wfn='ccsd(t)', delta_basis='aug-cc-pv[dt]z', bsse_type='cp')
--------------------------------------------------------------------------

    Molecular point group: c1
  Charge       = 0
  Multiplicity = 1
  Basis Set: AUG-CC-PVQZ
    Blend: AUG-CC-PVQZ
  Basis Set: (AUG-CC-PVQZ AUX)
    Blend: AUG-CC-PVQZ-JKFIT
  @DF-RHF Final Energy:   -76.06524122231151
    Total Energy =                        -76.0652412223115135
  Basis Set: (AUG-CC-PVQZ AUX)
    Blend: AUG-CC-PVQZ-RI
	 Reference Energy          =     -76.0652412223115135 [Eh]
	 Singles Energy            =      -0.0000000000000000 [Eh]
	 Same-Spin Energy          =      -0.0727782995331850 [Eh]
	 Opposite-Spin Energy      =      -0.2444811360467302 [Eh]
	 Correlation Energy        =      -0.3172594355799152 [Eh]
	 Total Energy              =     -76.3825006578914270 [Eh]
	 SCS Total Energy          =     -76.3828780187453162 [Eh]
    Molecular point group: c1
  Basis Set: AUG-CC-PVDZ
    Blend: AUG-CC-PVDZ
  Basis Set: (AUG-CC-PVDZ AUX)
    Blend: AUG-CC-PVDZ-JKFIT
  @DF-RHF Final Energy:   -76.04074947267249
    Total Energy =                        -76.0407494726724877
      * MP2 total energy                      =  -76.263228524852181
      * CCSD total energy                     =  -76.270712039023067
      * CCSD(T) total energy                  =  -76.275999386612654
  @DF-RHF Final Energy:   -76.05988926379705
    Total Energy =                        -76.0598892637970465
      * MP2 total energy                      =  -76.343905267094200
      * CCSD total energy                     =  -76.348455704420203
      * CCSD(T) total energy                  =  -76.357292882734129
  @DF-RHF Final Energy:   -76.06531548085725
    Total Energy =                        -76.0653154808572509
  @DF-RHF Final Energy:   -76.04157216920952
    Total Energy =                        -76.0415721692095303
      * MP2 total energy                      =  -76.266676905966250
      * CCSD total energy                     =  -76.274034436682015
      * CCSD(T) total energy                  =  -76.279628244115770
  @DF-RHF Final Energy:   -76.06010159691051
    Total Energy =                        -76.0601015969105276
      * MP2 total energy                      =  -76.346784371769431
      * CCSD total energy                     =  -76.351221631638651
      * CCSD(T) total energy                  =  -76.360155429061592
  @DF-RHF Final Energy:  -642.25227151872866
    Total Energy =                       -642.2522715187286622
  @DF-RHF Final Energy:  -642.08741438636935
    Total Energy =                       -642.0874143863693462
      * MP2 total energy                      = -643.040139855825714
      * CCSD total energy                     = -643.051007617016808
      * CCSD(T) total energy                  = -643.081534714354916
  @DF-RHF Final Energy:  -642.21955301509934
    Total Energy =                       -642.2195530150993363
      * MP2 total energy                      = -643.469582242348565
      * CCSD total energy                     = -643.470932225330671
      * CCSD(T) total energy                  = -643.518524574074945
  @DF-RHF Final Energy:  -642.25214430648759
    Total Energy =                       -642.2521443064875939
  @DF-RHF Final Energy:  -642.08599516759148
    Total Energy =                       -642.0859951675914772
      * MP2 total energy                      = -643.036125836608676
      * CCSD total energy                     = -643.047063826464523
      * CCSD(T) total energy                  = -643.077268697793102
  @DF-RHF Final Energy:  -642.21920173259616
    Total Energy =                       -642.2192017325961615
      * MP2 total energy                      = -643.465486321991648
      * CCSD total energy                     = -643.466885309527470
      * CCSD(T) total energy                  = -643.514360482026404
  @DF-RHF Final Energy:  -718.29927164929495
    Total Energy =                       -718.2992716492949512
	 Opposite-Spin Energy      =      -1.2974888518199892 [Eh]
	 Correlation Energy        =      -1.7233450963164429 [Eh]
	 Total Energy              =    -720.0226167456113444 [Eh]

	 ================> DF-SCS-MP2 Energies <==================
	-----------------------------------------------------------
	 SCS Same-Spin Scale       =       0.3333333333333333 [-]
	 SCS Opposite-Spin Scale   =       1.2000000000000000 [-]
	 SCS Same-Spin Energy      =      -0.1419520814988179 [Eh]
	 SCS Opposite-Spin Energy  =      -1.5569866221839870 [Eh]
	 SCS Correlation Energy    =      -1.6989387036828050 [Eh]
	 SCS Total Energy          =    -719.9982103529777078 [Eh]
	-----------------------------------------------------------

  Multiplicity = 1
  Basis Set: AUG-CC-PVDZ
    Blend: AUG-CC-PVDZ
  Basis Set: (AUG-CC-PVDZ AUX)
    Blend: AUG-CC-PVDZ-JKFIT
  @DF-RHF Final Energy:  -718.10928052305633
    Total Energy =                       -718.1092805230563272
      * MP2 total energy                      = -719.293232476563958
      * CCSD total energy                     = -719.308769825680088
      * CCSD(T) total energy                  = -719.346166809788542
    Molecular point group: c1

    Geometry (in Angstrom), charge = 0, multiplicity = 1:

       Center              X                  Y                   Z               Mass
    ------------   -----------------  -----------------  -----------------  -----------------
         P           -0.237209000299     0.137511643682    -0.300024323128    30.973761998420
         O            1.301027999701     0.053116643682     0.089258676872    15.994914619570
         O           -0.316443000299     1.471021643682    -1.178361323128    15.994914619570
         O           -1.163470000299     0.021227643682     0.843860676872    15.994914619570
         O           -0.503696000299    -0.963837356318    -1.415347323128    15.994914619570
         H           -0.180115000299     2.257998643682    -0.640233323128     1.007825032230
         H            0.144632999701    -0.929124356318    -2.126924323128     1.007825032230
         H            1.380794999701    -0.358980356318     0.981076676872     1.007825032230
         O            0.980458999701    -0.840817356318     2.052964676872    15.994914619570
         H            1.140336999701    -0.525624356318     2.943956676872     1.007825032230
         H            0.077018999701    -0.555351356318     1.835571676872     1.007825032230

  Charge       = 0
  Multiplicity = 1
  Basis Set: AUG-CC-PVTZ
    Blend: AUG-CC-PVTZ
  Basis Set: (AUG-CC-PVTZ AUX)
    Blend: AUG-CC-PVTZ-JKFIT

    Orbital Energies [Eh]
    ---------------------

    Doubly Occupied:

       1A    -80.109922     2A    -20.608533     3A    -20.604913
       4A    -20.595599     5A    -20.555205     6A    -20.532175
       7A     -7.626945     8A     -5.525410     9A     -5.525054
      10A     -5.524226    11A     -1.466026    12A     -1.426881
      13A     -1.389176    14A     -1.350637    15A     -1.319904
      16A     -0.864686    17A     -0.801146    18A     -0.764930
      19A     -0.756776    20A     -0.684930    21A     -0.651273
      22A     -0.621720    23A     -0.601997    24A     -0.599986
      25A     -0.570885    26A     -0.556680    27A     -0.523067
      28A     -0.513002    29A     -0.491394    30A     -0.483878

  @DF-RHF Final Energy:  -718.26112553404130

   => Energetics <=

    Nuclear Repulsion Energy =            381.0262597910626141
    One-Electron Energy =               -1751.2808557290318277
    Two-Electron Energy =                 651.9934704039279723
    Total Energy =                       -718.2611255340412981

  Dipole Moment: [D]
     X:     2.1643      Y:     1.6074      Z:     0.8472     Total:     2.8259

      * MP2 total energy                      = -719.808347922827693
      * CCSD total energy                     = -719.811598921374639
      * CCSD(T) total energy                  = -719.869847191605345
*** Psi4 exiting successfully. Buy a developer a beer!
