                               Psi4 1.4a2.dev224

  ==> Input File <==

--------------------------------------------------------------------------
#Generated by lconvert.py for cbs job

memory 50 GB

molecule  {
0 1
  P      -0.330456    0.164634    0.264146
  O       1.207781    0.080239    0.653429
  O      -0.409690    1.498144   -0.614191
  O      -1.256717    0.048350    1.408031
  O      -0.596943   -0.936715   -0.851177
  H      -0.273362    2.285121   -0.076063
  H       0.051386   -0.902002   -1.562754
  H       1.287548   -0.331858    1.545247
--
0 1
  O       0.715640   -1.020197    3.076516
  H       0.875518   -0.705004    3.967508
  H      -0.187800   -0.734731    2.859123
units angstrom
no_reorient
symmetry c1
}

set {
scf_type DF
mp2_type DF
e_convergence 7
reference rhf
}

energy(cbs, corl_wfn='mp2', corl_basis='aug-cc-pv[tq]z', delta_wfn='ccsd(t)', delta_basis='aug-cc-pv[dt]z', bsse_type='cp')
--------------------------------------------------------------------------

    Molecular point group: c1
  Charge       = 0
  Multiplicity = 1
  Basis Set: AUG-CC-PVQZ
    Blend: AUG-CC-PVQZ
  Basis Set: (AUG-CC-PVQZ AUX)
    Blend: AUG-CC-PVQZ-JKFIT
  @DF-RHF Final Energy:   -76.06524122231825
    Total Energy =                        -76.0652412223182495
  Basis Set: (AUG-CC-PVQZ AUX)
    Blend: AUG-CC-PVQZ-RI
	 Reference Energy          =     -76.0652412223182495 [Eh]
	 Singles Energy            =      -0.0000000000000000 [Eh]
	 Same-Spin Energy          =      -0.0727782995332140 [Eh]
	 Opposite-Spin Energy      =      -0.2444811360467367 [Eh]
	 Correlation Energy        =      -0.3172594355799507 [Eh]
	 Total Energy              =     -76.3825006578982055 [Eh]
	 SCS Total Energy          =     -76.3828780187520664 [Eh]
    Molecular point group: c1
  Basis Set: AUG-CC-PVDZ
    Blend: AUG-CC-PVDZ
  Basis Set: (AUG-CC-PVDZ AUX)
    Blend: AUG-CC-PVDZ-JKFIT
  @DF-RHF Final Energy:   -76.04074947266760
    Total Energy =                        -76.0407494726675992
      * MP2 total energy                      =  -76.263228524852181
      * CCSD total energy                     =  -76.270712039023095
      * CCSD(T) total energy                  =  -76.275999386612668
  @DF-RHF Final Energy:   -76.05988926379412
    Total Energy =                        -76.0598892637941049
      * MP2 total energy                      =  -76.343905267094286
      * CCSD total energy                     =  -76.348455704420303
      * CCSD(T) total energy                  =  -76.357292882734228
  @DF-RHF Final Energy:   -76.06529094312469
    Total Energy =                        -76.0652909431246940
  @DF-RHF Final Energy:   -76.04126990099498
    Total Energy =                        -76.0412699009949620
      * MP2 total energy                      =  -76.264946163395834
      * CCSD total energy                     =  -76.272360201615086
      * CCSD(T) total energy                  =  -76.277822752971105
  @DF-RHF Final Energy:   -76.06001382481173
    Total Energy =                        -76.0600138248117332
      * MP2 total energy                      =  -76.345235012240536
      * CCSD total energy                     =  -76.349756253469423
      * CCSD(T) total energy                  =  -76.358642872556288
  @DF-RHF Final Energy:  -642.25222596479114
    Total Energy =                       -642.2522259647911369
  @DF-RHF Final Energy:  -642.08686847974172
    Total Energy =                       -642.0868684797417245
      * MP2 total energy                      = -643.038317300177596
      * CCSD total energy                     = -643.049231539834182
      * CCSD(T) total energy                  = -643.079610492309257
  @DF-RHF Final Energy:  -642.21940551708633
    Total Energy =                       -642.2194055170863294
      * MP2 total energy                      = -643.467865986699280
      * CCSD total energy                     = -643.469246210231518
      * CCSD(T) total energy                  = -643.516790007439567
  @DF-RHF Final Energy:  -642.25214431005372
    Total Energy =                       -642.2521443100537226
  @DF-RHF Final Energy:  -642.08599516721915
    Total Energy =                       -642.0859951672191528
      * MP2 total energy                      = -643.036125836606402
      * CCSD total energy                     = -643.047063826462136
      * CCSD(T) total energy                  = -643.077268697790373
  @DF-RHF Final Energy:  -642.21920173321666
    Total Energy =                       -642.2192017332166643
      * MP2 total energy                      = -643.465486321992330
      * CCSD total energy                     = -643.466885309528607
      * CCSD(T) total energy                  = -643.514360482027996
  @DF-RHF Final Energy:  -718.33418669576406
    Total Energy =                       -718.3341866957640605
	 Opposite-Spin Energy      =      -1.2937482080726490 [Eh]
	 Correlation Energy        =      -1.7147688383395063 [Eh]
	 Total Energy              =    -720.0489555341035839 [Eh]

	 ================> DF-SCS-MP2 Energies <==================
	-----------------------------------------------------------
	 SCS Same-Spin Scale       =       0.3333333333333333 [-]
	 SCS Opposite-Spin Scale   =       1.2000000000000000 [-]
	 SCS Same-Spin Energy      =      -0.1403402100889524 [Eh]
	 SCS Opposite-Spin Energy  =      -1.5524978496871789 [Eh]
	 SCS Correlation Energy    =      -1.6928380597761312 [Eh]
	 SCS Total Energy          =    -720.0270247555401966 [Eh]
	-----------------------------------------------------------

  Multiplicity = 1
  Basis Set: AUG-CC-PVDZ
    Blend: AUG-CC-PVDZ
  Basis Set: (AUG-CC-PVDZ AUX)
    Blend: AUG-CC-PVDZ-JKFIT
  @DF-RHF Final Energy:  -718.14443783117463
    Total Energy =                       -718.1444378311746277
      * MP2 total energy                      = -719.322543877078829
      * CCSD total energy                     = -719.340015614862409
      * CCSD(T) total energy                  = -719.376583871609455
    Molecular point group: c1

    Geometry (in Angstrom), charge = 0, multiplicity = 1:

       Center              X                  Y                   Z               Mass
    ------------   -----------------  -----------------  -----------------  -----------------
         P           -0.210567253018     0.169577330957    -0.371357130974    30.973761998420
         O            1.327669746982     0.085182330957     0.017925869026    15.994914619570
         O           -0.289801253018     1.503087330957    -1.249694130974    15.994914619570
         O           -1.136828253018     0.053293330957     0.772527869026    15.994914619570
         O           -0.477054253018    -0.931771669043    -1.486680130974    15.994914619570
         H           -0.153473253018     2.290064330957    -0.711566130974     1.007825032230
         H            0.171274746982    -0.897058669043    -2.198257130974     1.007825032230
         H            1.407436746982    -0.326914669043     0.909743869026     1.007825032230
         O            0.835528746982    -1.015253669043     2.441012869026    15.994914619570
         H            0.995406746982    -0.700060669043     3.332004869026     1.007825032230
         H           -0.067911253018    -0.729787669043     2.223619869026     1.007825032230

  Charge       = 0
  Multiplicity = 1
  Basis Set: AUG-CC-PVTZ
    Blend: AUG-CC-PVTZ
  Basis Set: (AUG-CC-PVTZ AUX)
    Blend: AUG-CC-PVTZ-JKFIT

    Orbital Energies [Eh]
    ---------------------

    Doubly Occupied:

       1A    -80.115910     2A    -20.614803     3A    -20.610429
       4A    -20.597200     5A    -20.578528     6A    -20.524515
       7A     -7.632634     8A     -5.531067     9A     -5.530774
      10A     -5.529863    11A     -1.466446    12A     -1.394715
      13A     -1.390723    14A     -1.364693    15A     -1.310017
      16A     -0.865101    17A     -0.775164    18A     -0.758199
      19A     -0.736853    20A     -0.680696    21A     -0.654551
      22A     -0.615925    23A     -0.602333    24A     -0.593737
      25A     -0.578929    26A     -0.562525    27A     -0.533554
      28A     -0.523642    29A     -0.486170    30A     -0.481252

  @DF-RHF Final Energy:  -718.29597251604991

   => Energetics <=

    Nuclear Repulsion Energy =            369.1421772340153211
    One-Electron Energy =               -1727.5943969345853475
    Two-Electron Energy =                 640.1562471845199980
    Total Energy =                       -718.2959725160499147

  Dipole Moment: [D]
     X:     2.2106      Y:     1.8270      Z:     0.1874     Total:     2.8740

      * MP2 total energy                      = -719.834276490982802
      * CCSD total energy                     = -719.839333900210931
      * CCSD(T) total energy                  = -719.896701951191858
*** Psi4 exiting successfully. Buy a developer a beer!
