                               Psi4 1.4a2.dev224

  ==> Input File <==

--------------------------------------------------------------------------
#Generated by lconvert.py for cbs job

memory 50 GB

molecule  {
0 1
  F      -0.104451    0.931588   -0.417503
  C      -0.688387   -0.272700   -0.040759
  H       0.091664   -0.948228    0.296404
  H      -1.393724   -0.079636    0.761890
  H      -1.204948   -0.690896   -0.899419
--
0 1
  O       1.973512    0.051796    0.136260
  H       2.793651    0.539939    0.049755
  H       1.301760    0.670326   -0.165433
units angstrom
no_reorient
symmetry c1
}

set {
scf_type DF
mp2_type DF
e_convergence 7
reference rhf
}

energy(cbs, corl_wfn='mp2', corl_basis='aug-cc-pv[tq]z', delta_wfn='ccsd(t)', delta_basis='aug-cc-pv[dt]z', bsse_type='cp')
--------------------------------------------------------------------------

    Molecular point group: c1
  Charge       = 0
  Multiplicity = 1
  Basis Set: AUG-CC-PVQZ
    Blend: AUG-CC-PVQZ
  Basis Set: (AUG-CC-PVQZ AUX)
    Blend: AUG-CC-PVQZ-JKFIT
  @DF-RHF Final Energy:   -76.06574526753916
    Total Energy =                        -76.0657452675391568
  Basis Set: (AUG-CC-PVQZ AUX)
    Blend: AUG-CC-PVQZ-RI
	 Reference Energy          =     -76.0657452675391568 [Eh]
	 Singles Energy            =      -0.0000000000000000 [Eh]
	 Same-Spin Energy          =      -0.0727202747128312 [Eh]
	 Opposite-Spin Energy      =      -0.2442635072476422 [Eh]
	 Correlation Energy        =      -0.3169837819604734 [Eh]
	 Total Energy              =     -76.3827290494996305 [Eh]
	 SCS Total Energy          =     -76.3831015678072731 [Eh]
    Molecular point group: c1
  Basis Set: AUG-CC-PVDZ
    Blend: AUG-CC-PVDZ
  Basis Set: (AUG-CC-PVDZ AUX)
    Blend: AUG-CC-PVDZ-JKFIT
  @DF-RHF Final Energy:   -76.04120020096926
    Total Energy =                        -76.0412002009692714
      * MP2 total energy                      =  -76.263314605339701
      * CCSD total energy                     =  -76.270811169240559
      * CCSD(T) total energy                  =  -76.276067087016841
  @DF-RHF Final Energy:   -76.06036551382263
    Total Energy =                        -76.0603655138226316
      * MP2 total energy                      =  -76.344112805194214
      * CCSD total energy                     =  -76.348699805070638
      * CCSD(T) total energy                  =  -76.357492100023961
  @DF-RHF Final Energy:   -76.06577890810733
    Total Energy =                        -76.0657789081073332
  @DF-RHF Final Energy:   -76.04179897442921
    Total Energy =                        -76.0417989744292129
      * MP2 total energy                      =  -76.264836316711751
      * CCSD total energy                     =  -76.272259096416150
      * CCSD(T) total energy                  =  -76.277625585459546
  @DF-RHF Final Energy:   -76.06045654898699
    Total Energy =                        -76.0604565489870055
      * MP2 total energy                      =  -76.345203067221846
      * CCSD total energy                     =  -76.349765842785516
      * CCSD(T) total energy                  =  -76.358596458063445
  @DF-RHF Final Energy:  -139.10680983755347
    Total Energy =                       -139.1068098375534703
  @DF-RHF Final Energy:  -139.05807888953541
    Total Energy =                       -139.0580788895354090
      * MP2 total energy                      = -139.424473430561761
      * CCSD total energy                     = -139.444492013769974
      * CCSD(T) total energy                  = -139.453977253088482
  @DF-RHF Final Energy:  -139.09747346237498
    Total Energy =                       -139.0974734623749782
      * MP2 total energy                      = -139.575927967189529
      * CCSD total energy                     = -139.591648964783190
      * CCSD(T) total energy                  = -139.606500335336079
  @DF-RHF Final Energy:  -139.10671297538826
    Total Energy =                       -139.1067129753882625
  @DF-RHF Final Energy:  -139.05737225498888
    Total Energy =                       -139.0573722549888771
      * MP2 total energy                      = -139.422154893720545
      * CCSD total energy                     = -139.442195197762402
      * CCSD(T) total energy                  = -139.451496007923225
  @DF-RHF Final Energy:  -139.09724920106220
    Total Energy =                       -139.0972492010621977
      * MP2 total energy                      = -139.573994419420444
      * CCSD total energy                     = -139.589719946488458
      * CCSD(T) total energy                  = -139.604518131014203
  @DF-RHF Final Energy:  -215.15744136014482
    Total Energy =                       -215.1574413601448157
	 Opposite-Spin Energy      =      -0.6656750901622345 [Eh]
	 Correlation Energy        =      -0.8604447654438754 [Eh]
	 Total Energy              =    -216.0178861255886886 [Eh]

	 ================> DF-SCS-MP2 Energies <==================
	-----------------------------------------------------------
	 SCS Same-Spin Scale       =       0.3333333333333333 [-]
	 SCS Opposite-Spin Scale   =       1.2000000000000000 [-]
	 SCS Same-Spin Energy      =      -0.0649232250938803 [Eh]
	 SCS Opposite-Spin Energy  =      -0.7988101081946813 [Eh]
	 SCS Correlation Energy    =      -0.8637333332885617 [Eh]
	 SCS Total Energy          =    -216.0211746934333803 [Eh]
	-----------------------------------------------------------

  Multiplicity = 1
  Basis Set: AUG-CC-PVDZ
    Blend: AUG-CC-PVDZ
  Basis Set: (AUG-CC-PVDZ AUX)
    Blend: AUG-CC-PVDZ-JKFIT
  @DF-RHF Final Energy:  -215.08411696403229
    Total Energy =                       -215.0841169640322903
      * MP2 total energy                      = -215.677991390494725
      * CCSD total energy                     = -215.704198155816897
      * CCSD(T) total energy                  = -215.719779366561625
    Molecular point group: c1

    Geometry (in Angstrom), charge = 0, multiplicity = 1:

       Center              X                  Y                   Z               Mass
    ------------   -----------------  -----------------  -----------------  -----------------
         F           -0.544982728666     0.648259326975    -0.298385082773    18.998403162730
         C           -1.128918728666    -0.556028673025     0.078358917227    12.000000000000
         H           -0.348867728666    -1.231556673025     0.415521917227     1.007825032230
         H           -1.834255728666    -0.362964673025     0.881007917227     1.007825032230
         H           -1.645479728666    -0.974224673025    -0.780301082773     1.007825032230
         O            1.532980271334    -0.231532673025     0.255377917227    15.994914619570
         H            2.353119271334     0.256610326975     0.168872917227     1.007825032230
         H            0.861228271334     0.386997326975    -0.046315082773     1.007825032230

  Charge       = 0
  Multiplicity = 1
  Basis Set: AUG-CC-PVTZ
    Blend: AUG-CC-PVTZ
  Basis Set: (AUG-CC-PVTZ AUX)
    Blend: AUG-CC-PVTZ-JKFIT

    Orbital Energies [Eh]
    ---------------------

    Doubly Occupied:

       1A    -26.306997     2A    -20.528995     3A    -11.308453
       4A     -1.625557     5A     -1.326744     6A     -0.969632
       7A     -0.778212     8A     -0.720540     9A     -0.700682
      10A     -0.635839    11A     -0.587570    12A     -0.547879
      13A     -0.521106    14A     -0.481571

  @DF-RHF Final Energy:  -215.14264119478094

   => Energetics <=

    Nuclear Repulsion Energy =             85.0092770430148761
    One-Electron Energy =                -466.2242849445701722
    Two-Electron Energy =                 166.0723667067743463
    Total Energy =                       -215.1426411947809356

  Dipole Moment: [D]
     X:    -1.2012      Y:     0.0381      Z:    -0.1454     Total:     1.2106

      * MP2 total energy                      = -215.912300168768951
      * CCSD total energy                     = -215.931427934618313
      * CCSD(T) total energy                  = -215.956056782812908
*** Psi4 exiting successfully. Buy a developer a beer!
