                               Psi4 1.4a2.dev224

  ==> Input File <==

--------------------------------------------------------------------------
#Generated by lconvert.py for cbs job

memory 50 GB

molecule  {
0 1
  F      -0.104451    0.931588   -0.417503
  C      -0.688387   -0.272700   -0.040759
  H       0.091664   -0.948228    0.296404
  H      -1.393724   -0.079636    0.761890
  H      -1.204948   -0.690896   -0.899419
--
0 1
  O       2.586578   -0.015611    0.229179
  H       3.406717    0.472532    0.142674
  H       1.914826    0.602919   -0.072514
units angstrom
no_reorient
symmetry c1
}

set {
scf_type DF
mp2_type DF
e_convergence 7
reference rhf
}

energy(cbs, corl_wfn='mp2', corl_basis='aug-cc-pv[tq]z', delta_wfn='ccsd(t)', delta_basis='aug-cc-pv[dt]z', bsse_type='cp')
--------------------------------------------------------------------------

    Molecular point group: c1
  Charge       = 0
  Multiplicity = 1
  Basis Set: AUG-CC-PVQZ
    Blend: AUG-CC-PVQZ
  Basis Set: (AUG-CC-PVQZ AUX)
    Blend: AUG-CC-PVQZ-JKFIT
  @DF-RHF Final Energy:   -76.06574526754976
    Total Energy =                        -76.0657452675497439
  Basis Set: (AUG-CC-PVQZ AUX)
    Blend: AUG-CC-PVQZ-RI
	 Reference Energy          =     -76.0657452675497581 [Eh]
	 Singles Energy            =      -0.0000000000000000 [Eh]
	 Same-Spin Energy          =      -0.0727202747129126 [Eh]
	 Opposite-Spin Energy      =      -0.2442635072479024 [Eh]
	 Correlation Energy        =      -0.3169837819608150 [Eh]
	 Total Energy              =     -76.3827290495105728 [Eh]
	 SCS Total Energy          =     -76.3831015678182155 [Eh]
    Molecular point group: c1
  Basis Set: AUG-CC-PVDZ
    Blend: AUG-CC-PVDZ
  Basis Set: (AUG-CC-PVDZ AUX)
    Blend: AUG-CC-PVDZ-JKFIT
  @DF-RHF Final Energy:   -76.04120020096818
    Total Energy =                        -76.0412002009681771
      * MP2 total energy                      =  -76.263314605339403
      * CCSD total energy                     =  -76.270811169240275
      * CCSD(T) total energy                  =  -76.276067087016543
  @DF-RHF Final Energy:   -76.06036551382805
    Total Energy =                        -76.0603655138280601
      * MP2 total energy                      =  -76.344112805194200
      * CCSD total energy                     =  -76.348699805070567
      * CCSD(T) total energy                  =  -76.357492100023919
  @DF-RHF Final Energy:   -76.06576294052446
    Total Energy =                        -76.0657629405244506
  @DF-RHF Final Energy:   -76.04150888145902
    Total Energy =                        -76.0415088814590234
      * MP2 total energy                      =  -76.264001330475807
      * CCSD total energy                     =  -76.271463366622498
      * CCSD(T) total energy                  =  -76.276770206388562
  @DF-RHF Final Energy:   -76.06041138013988
    Total Energy =                        -76.0604113801398967
      * MP2 total energy                      =  -76.344603454940156
      * CCSD total energy                     =  -76.349181291886225
      * CCSD(T) total energy                  =  -76.357992250286117
  @DF-RHF Final Energy:  -139.10677174871682
    Total Energy =                       -139.1067717487168238
  @DF-RHF Final Energy:  -139.05760923767963
    Total Energy =                       -139.0576092376796282
      * MP2 total energy                      = -139.422896225359011
      * CCSD total energy                     = -139.442930617682833
      * CCSD(T) total energy                  = -139.452303089369593
  @DF-RHF Final Energy:  -139.09738644518868
    Total Energy =                       -139.0973864451886755
      * MP2 total energy                      = -139.574761334952058
      * CCSD total energy                     = -139.590496400079729
      * CCSD(T) total energy                  = -139.605315416656055
  @DF-RHF Final Energy:  -139.10671297549089
    Total Energy =                       -139.1067129754908933
  @DF-RHF Final Energy:  -139.05737225497680
    Total Energy =                       -139.0573722549767979
      * MP2 total energy                      = -139.422154893720432
      * CCSD total energy                     = -139.442195197762345
      * CCSD(T) total energy                  = -139.451496007923168
  @DF-RHF Final Energy:  -139.09724920107641
    Total Energy =                       -139.0972492010764086
      * MP2 total energy                      = -139.573994419420302
      * CCSD total energy                     = -139.589719946488344
      * CCSD(T) total energy                  = -139.604518131014117
  @DF-RHF Final Energy:  -215.17649832761921
    Total Energy =                       -215.1764983276192140
	 Opposite-Spin Energy      =      -0.6629764337841820 [Eh]
	 Correlation Energy        =      -0.8546213537181715 [Eh]
	 Total Energy              =    -216.0311196813373726 [Eh]

	 ================> DF-SCS-MP2 Energies <==================
	-----------------------------------------------------------
	 SCS Same-Spin Scale       =       0.3333333333333333 [-]
	 SCS Opposite-Spin Scale   =       1.2000000000000000 [-]
	 SCS Same-Spin Energy      =      -0.0638816399779965 [Eh]
	 SCS Opposite-Spin Energy  =      -0.7955717205410184 [Eh]
	 SCS Correlation Energy    =      -0.8594533605190149 [Eh]
	 SCS Total Energy          =    -216.0359516881382262 [Eh]
	-----------------------------------------------------------

  Multiplicity = 1
  Basis Set: AUG-CC-PVDZ
    Blend: AUG-CC-PVDZ
  Basis Set: (AUG-CC-PVDZ AUX)
    Blend: AUG-CC-PVDZ-JKFIT
  @DF-RHF Final Energy:  -215.10316388345515
    Total Energy =                       -215.1031638834551529
      * MP2 total energy                      = -215.692357211729018
      * CCSD total energy                     = -215.719621237285423
      * CCSD(T) total energy                  = -215.734550412499487
    Molecular point group: c1

    Geometry (in Angstrom), charge = 0, multiplicity = 1:

       Center              X                  Y                   Z               Mass
    ------------   -----------------  -----------------  -----------------  -----------------
         F           -0.757190040566     0.671591657055    -0.330548163443    18.998403162730
         C           -1.341126040566    -0.532696342945     0.046195836557    12.000000000000
         H           -0.561075040566    -1.208224342945     0.383358836557     1.007825032230
         H           -2.046463040566    -0.339632342945     0.848844836557     1.007825032230
         H           -1.857687040566    -0.950892342945    -0.812464163443     1.007825032230
         O            1.933838959434    -0.275607342945     0.316133836557    15.994914619570
         H            2.753977959434     0.212535657055     0.229628836557     1.007825032230
         H            1.262086959434     0.342922657055     0.014440836557     1.007825032230

  Charge       = 0
  Multiplicity = 1
  Basis Set: AUG-CC-PVTZ
    Blend: AUG-CC-PVTZ
  Basis Set: (AUG-CC-PVTZ AUX)
    Blend: AUG-CC-PVTZ-JKFIT

    Orbital Energies [Eh]
    ---------------------

    Doubly Occupied:

       1A    -26.290891     2A    -20.554893     3A    -11.307471
       4A     -1.598730     5A     -1.341534     6A     -0.961291
       7A     -0.726789     8A     -0.704467     9A     -0.687645
      10A     -0.679609    11A     -0.578355    12A     -0.539286
      13A     -0.536921    14A     -0.499357

  @DF-RHF Final Energy:  -215.16172058662420

   => Energetics <=

    Nuclear Repulsion Energy =             77.3181431693596863
    One-Electron Energy =                -450.9452492510304182
    Two-Electron Energy =                 158.4653854950465188
    Total Energy =                       -215.1617205866241989

  Dipole Moment: [D]
     X:    -0.8202      Y:     0.0041      Z:    -0.0907     Total:     0.8252

      * MP2 total energy                      = -215.925246106586059
      * CCSD total energy                     = -215.945340885235566
      * CCSD(T) total energy                  = -215.969303840162297
*** Psi4 exiting successfully. Buy a developer a beer!
