                               Psi4 1.4a2.dev224

  ==> Input File <==

--------------------------------------------------------------------------
#Generated by lconvert.py for cbs job

memory 50 GB

molecule  {
0 1
  F       1.798660   -0.304510    0.000167
  C       1.627343    1.070432    0.000107
  H       0.564776    1.293985    0.000086
  H       2.096654    1.483171   -0.888816
  H       2.096634    1.483247    0.889004
--
0 1
  F      -1.798421    0.304551    0.000217
  C      -1.627227   -1.070404    0.000127
  H      -2.096670   -1.483095   -0.888748
  H      -2.096463   -1.483186    0.889069
  H      -0.564681   -1.294060   -0.000007
units angstrom
no_reorient
symmetry c1
}

set {
scf_type DF
mp2_type DF
e_convergence 7
reference rhf
}

energy(cbs, corl_wfn='mp2', corl_basis='aug-cc-pv[tq]z', delta_wfn='ccsd(t)', delta_basis='aug-cc-pv[dt]z', bsse_type='cp')
--------------------------------------------------------------------------

    Molecular point group: c1
  Charge       = 0
  Multiplicity = 1
  Basis Set: AUG-CC-PVQZ
    Blend: AUG-CC-PVQZ
  Basis Set: (AUG-CC-PVQZ AUX)
    Blend: AUG-CC-PVQZ-JKFIT
  @DF-RHF Final Energy:  -139.10685270776222
    Total Energy =                       -139.1068527077622150
  Basis Set: (AUG-CC-PVQZ AUX)
    Blend: AUG-CC-PVQZ-RI
	 Reference Energy          =    -139.1068527077622150 [Eh]
	 Singles Energy            =      -0.0000000000000000 [Eh]
	 Same-Spin Energy          =      -0.1175752930552337 [Eh]
	 Opposite-Spin Energy      =      -0.4173609707110205 [Eh]
	 Correlation Energy        =      -0.5349362637662542 [Eh]
	 Total Energy              =    -139.6417889715284559 [Eh]
	 SCS Total Energy          =    -139.6468776369671900 [Eh]
    Molecular point group: c1
  Basis Set: AUG-CC-PVDZ
    Blend: AUG-CC-PVDZ
  Basis Set: (AUG-CC-PVDZ AUX)
    Blend: AUG-CC-PVDZ-JKFIT
  @DF-RHF Final Energy:  -139.05742463792407
    Total Energy =                       -139.0574246379240719
      * MP2 total energy                      = -139.422060576404107
      * CCSD total energy                     = -139.442126050100910
      * CCSD(T) total energy                  = -139.451402751370438
  @DF-RHF Final Energy:  -139.09738036303304
    Total Energy =                       -139.0973803630330394
      * MP2 total energy                      = -139.574002324069482
      * CCSD total energy                     = -139.589760266792752
      * CCSD(T) total energy                  = -139.604527263377662
  @DF-RHF Final Energy:  -139.10689727954673
    Total Energy =                       -139.1068972795467289
  @DF-RHF Final Energy:  -139.05763369453427
    Total Energy =                       -139.0576336945342746
      * MP2 total energy                      = -139.422684563086619
      * CCSD total energy                     = -139.442736929270438
      * CCSD(T) total energy                  = -139.452070288077550
  @DF-RHF Final Energy:  -139.09747676780739
    Total Energy =                       -139.0974767678073931
      * MP2 total energy                      = -139.574612188235420
      * CCSD total energy                     = -139.590381420615273
      * CCSD(T) total energy                  = -139.605164317659558
  @DF-RHF Final Energy:  -139.10689722764062
    Total Energy =                       -139.1068972276406157
  @DF-RHF Final Energy:  -139.05763368884891
    Total Energy =                       -139.0576336888489095
      * MP2 total energy                      = -139.422684593051940
      * CCSD total energy                     = -139.442736945350077
      * CCSD(T) total energy                  = -139.452070308961737
  @DF-RHF Final Energy:  -139.09747670862123
    Total Energy =                       -139.0974767086212296
      * MP2 total energy                      = -139.574612183228993
      * CCSD total energy                     = -139.590381403005040
      * CCSD(T) total energy                  = -139.605164313022385
  @DF-RHF Final Energy:  -139.10685266154871
    Total Energy =                       -139.1068526615487144
  @DF-RHF Final Energy:  -139.05742463721705
    Total Energy =                       -139.0574246372170535
      * MP2 total energy                      = -139.422060638333079
      * CCSD total energy                     = -139.442126101159062
      * CCSD(T) total energy                  = -139.451402813268430
  @DF-RHF Final Energy:  -139.09738032141024
    Total Energy =                       -139.0973803214102418
      * MP2 total energy                      = -139.574002334998937
      * CCSD total energy                     = -139.589760263783432
      * CCSD(T) total energy                  = -139.604527274596393
  @DF-RHF Final Energy:  -278.21559336754677
    Total Energy =                       -278.2155933675468305
	 Opposite-Spin Energy      =      -0.8357662436092480 [Eh]
	 Correlation Energy        =      -1.0719099844720665 [Eh]
	 Total Energy              =    -279.2875033520188595 [Eh]

	 ================> DF-SCS-MP2 Energies <==================
	-----------------------------------------------------------
	 SCS Same-Spin Scale       =       0.3333333333333333 [-]
	 SCS Opposite-Spin Scale   =       1.2000000000000000 [-]
	 SCS Same-Spin Energy      =      -0.0787145802876062 [Eh]
	 SCS Opposite-Spin Energy  =      -1.0029194923310976 [Eh]
	 SCS Correlation Energy    =      -1.0816340726187037 [Eh]
	 SCS Total Energy          =    -279.2972274401655000 [Eh]
	-----------------------------------------------------------

  Multiplicity = 1
  Basis Set: AUG-CC-PVDZ
    Blend: AUG-CC-PVDZ
  Basis Set: (AUG-CC-PVDZ AUX)
    Blend: AUG-CC-PVDZ-JKFIT
  @DF-RHF Final Energy:  -278.11714178491150
    Total Energy =                       -278.1171417849114960
      * MP2 total energy                      = -278.848411476648209
      * CCSD total energy                     = -278.888445148901553
      * CCSD(T) total energy                  = -278.907308455387010
    Molecular point group: c1

    Geometry (in Angstrom), charge = 0, multiplicity = 1:

       Center              X                  Y                   Z               Mass
    ------------   -----------------  -----------------  -----------------  -----------------
         F            1.798569108860    -0.304527303861     0.000009807210    18.998403162730
         C            1.627252108860     1.070414696139    -0.000050192790    12.000000000000
         H            0.564685108860     1.293967696139    -0.000071192790     1.007825032230
         H            2.096563108860     1.483153696139    -0.888973192790     1.007825032230
         H            2.096543108860     1.483229696139     0.888846807210     1.007825032230
         F           -1.798511891140     0.304533696139     0.000059807210    18.998403162730
         C           -1.627317891140    -1.070421303861    -0.000030192790    12.000000000000
         H           -2.096760891140    -1.483112303861    -0.888905192790     1.007825032230
         H           -2.096553891140    -1.483203303861     0.888911807210     1.007825032230
         H           -0.564771891140    -1.294077303861    -0.000164192790     1.007825032230

  Charge       = 0
  Multiplicity = 1
  Basis Set: AUG-CC-PVTZ
    Blend: AUG-CC-PVTZ
  Basis Set: (AUG-CC-PVTZ AUX)
    Blend: AUG-CC-PVTZ-JKFIT

    Orbital Energies [Eh]
    ---------------------

    Doubly Occupied:

       1A    -26.278842     2A    -26.278838     3A    -11.299783
       4A    -11.299780     5A     -1.587502     6A     -1.586873
       7A     -0.953418     8A     -0.951852     9A     -0.705251
      10A     -0.695059    11A     -0.693644    12A     -0.686015
      13A     -0.675136    14A     -0.670826    15A     -0.536762
      16A     -0.529687    17A     -0.528774    18A     -0.520467

  @DF-RHF Final Energy:  -278.19676130675475

   => Energetics <=

    Nuclear Repulsion Energy =            121.7855412593207376
    One-Electron Energy =                -627.0075865990842203
    Two-Electron Energy =                 227.0252840330087452
    Total Energy =                       -278.1967613067547518

  Dipole Moment: [D]
     X:    -0.0002      Y:    -0.0000      Z:    -0.0002     Total:     0.0003

      * MP2 total energy                      = -279.152595777362990
      * CCSD total energy                     = -279.184069587694637
      * CCSD(T) total energy                  = -279.213890562941174
*** Psi4 exiting successfully. Buy a developer a beer!
