                               Psi4 1.4a2.dev224

  ==> Input File <==

--------------------------------------------------------------------------
#Generated by lconvert.py for cbs job

memory 50 GB

molecule  {
0 1
  F      -0.914324    0.000012    0.000000
  C      -2.297346    0.000023    0.000000
  H      -2.651740    1.027062   -0.000001
  H      -2.651752   -0.513492    0.889440
  H      -2.651753   -0.513493   -0.889439
--
0 1
  F       3.554815    0.000019    0.000001
  C       2.171449    0.000018    0.000000
  H       1.813616    1.025419    0.000000
  H       1.813617   -0.512684    0.888023
  H       1.813618   -0.512683   -0.888025
units angstrom
no_reorient
symmetry c1
}

set {
scf_type DF
mp2_type DF
e_convergence 7
reference rhf
}

energy(cbs, corl_wfn='mp2', corl_basis='aug-cc-pv[tq]z', delta_wfn='ccsd(t)', delta_basis='aug-cc-pv[dt]z', bsse_type='cp')
--------------------------------------------------------------------------

    Molecular point group: c1
  Charge       = 0
  Multiplicity = 1
  Basis Set: AUG-CC-PVQZ
    Blend: AUG-CC-PVQZ
  Basis Set: (AUG-CC-PVQZ AUX)
    Blend: AUG-CC-PVQZ-JKFIT
  @DF-RHF Final Energy:  -139.10687886598529
    Total Energy =                       -139.1068788659852942
  Basis Set: (AUG-CC-PVQZ AUX)
    Blend: AUG-CC-PVQZ-RI
	 Reference Energy          =    -139.1068788659852942 [Eh]
	 Singles Energy            =      -0.0000000000000000 [Eh]
	 Same-Spin Energy          =      -0.1175819544854098 [Eh]
	 Opposite-Spin Energy      =      -0.4173162091555677 [Eh]
	 Correlation Energy        =      -0.5348981636409775 [Eh]
	 Total Energy              =    -139.6417770296262688 [Eh]
	 SCS Total Energy          =    -139.6468523018004362 [Eh]
    Molecular point group: c1
  Basis Set: AUG-CC-PVDZ
    Blend: AUG-CC-PVDZ
  Basis Set: (AUG-CC-PVDZ AUX)
    Blend: AUG-CC-PVDZ-JKFIT
  @DF-RHF Final Energy:  -139.05738489962766
    Total Energy =                       -139.0573848996276638
      * MP2 total energy                      = -139.421958249197274
      * CCSD total energy                     = -139.442027613420606
      * CCSD(T) total energy                  = -139.451292565865259
  @DF-RHF Final Energy:  -139.09739988084488
    Total Energy =                       -139.0973998808448755
      * MP2 total energy                      = -139.573976428444013
      * CCSD total energy                     = -139.589742169902195
      * CCSD(T) total energy                  = -139.604493695747749
  @DF-RHF Final Energy:  -139.10689691928158
    Total Energy =                       -139.1068969192815814
  @DF-RHF Final Energy:  -139.05774453203492
    Total Energy =                       -139.0577445320349170
      * MP2 total energy                      = -139.422579793223377
      * CCSD total energy                     = -139.442627075883053
      * CCSD(T) total energy                  = -139.451923609072850
  @DF-RHF Final Energy:  -139.09742901571948
    Total Energy =                       -139.0974290157195128
      * MP2 total energy                      = -139.574362110894327
      * CCSD total energy                     = -139.590140026759599
      * CCSD(T) total energy                  = -139.604898976562396
  @DF-RHF Final Energy:  -139.10694886663345
    Total Energy =                       -139.1069488666334450
  @DF-RHF Final Energy:  -139.05757820187256
    Total Energy =                       -139.0575782018725590
      * MP2 total energy                      = -139.422349742058373
      * CCSD total energy                     = -139.442415200593416
      * CCSD(T) total energy                  = -139.451708460400909
  @DF-RHF Final Energy:  -139.09751048125989
    Total Energy =                       -139.0975104812598886
      * MP2 total energy                      = -139.574372473809433
      * CCSD total energy                     = -139.590147904617766
      * CCSD(T) total energy                  = -139.604908999405041
  @DF-RHF Final Energy:  -139.10692383274881
    Total Energy =                       -139.1069238327488051
  @DF-RHF Final Energy:  -139.05744202525858
    Total Energy =                       -139.0574420252585810
      * MP2 total energy                      = -139.421988495835961
      * CCSD total energy                     = -139.442064816842390
      * CCSD(T) total energy                  = -139.451327318366197
  @DF-RHF Final Energy:  -139.09744646685536
    Total Energy =                       -139.0974464668553594
      * MP2 total energy                      = -139.573997861302530
      * CCSD total energy                     = -139.589771624088428
      * CCSD(T) total energy                  = -139.604520465752756
  @DF-RHF Final Energy:  -278.21531614979892
    Total Energy =                       -278.2153161497989231
	 Opposite-Spin Energy      =      -0.8352325972798699 [Eh]
	 Correlation Energy        =      -1.0709478916070498 [Eh]
	 Total Energy              =    -279.2862640414059570 [Eh]

	 ================> DF-SCS-MP2 Energies <==================
	-----------------------------------------------------------
	 SCS Same-Spin Scale       =       0.3333333333333333 [-]
	 SCS Opposite-Spin Scale   =       1.2000000000000000 [-]
	 SCS Same-Spin Energy      =      -0.0785717647757267 [Eh]
	 SCS Opposite-Spin Energy  =      -1.0022791167358438 [Eh]
	 SCS Correlation Energy    =      -1.0808508815115705 [Eh]
	 SCS Total Energy          =    -279.2961670313105174 [Eh]
	-----------------------------------------------------------

  Multiplicity = 1
  Basis Set: AUG-CC-PVDZ
    Blend: AUG-CC-PVDZ
  Basis Set: (AUG-CC-PVDZ AUX)
    Blend: AUG-CC-PVDZ-JKFIT
  @DF-RHF Final Energy:  -278.11682480116701
    Total Energy =                       -278.1168248011670130
      * MP2 total energy                      = -278.847075539121420
      * CCSD total energy                     = -278.887179445604716
      * CCSD(T) total energy                  = -278.905878813938614
    Molecular point group: c1

    Geometry (in Angstrom), charge = 0, multiplicity = 1:

       Center              X                  Y                   Z               Mass
    ------------   -----------------  -----------------  -----------------  -----------------
         F           -1.592127250600    -0.000005796782    -0.000000249586    18.998403162730
         C           -2.975149250600     0.000005203218    -0.000000249586    12.000000000000
         H           -3.329543250600     1.027044203218    -0.000001249586     1.007825032230
         H           -3.329555250600    -0.513509796782     0.889439750414     1.007825032230
         H           -3.329556250600    -0.513510796782    -0.889439249586     1.007825032230
         F            2.877011749400     0.000001203218     0.000000750414    18.998403162730
         C            1.493645749400     0.000000203218    -0.000000249586    12.000000000000
         H            1.135812749400     1.025401203218    -0.000000249586     1.007825032230
         H            1.135813749400    -0.512701796782     0.888022750414     1.007825032230
         H            1.135814749400    -0.512700796782    -0.888025249586     1.007825032230

  Charge       = 0
  Multiplicity = 1
  Basis Set: AUG-CC-PVTZ
    Blend: AUG-CC-PVTZ
  Basis Set: (AUG-CC-PVTZ AUX)
    Blend: AUG-CC-PVTZ-JKFIT

    Orbital Energies [Eh]
    ---------------------

    Doubly Occupied:

       1A    -26.291206     2A    -26.265442     3A    -11.314308
       4A    -11.288454     5A     -1.600266     6A     -1.574215
       7A     -0.966621     8A     -0.939852     9A     -0.707540
      10A     -0.707540    11A     -0.689381    12A     -0.681598
      13A     -0.681598    14A     -0.659440    15A     -0.542090
      16A     -0.542090    17A     -0.515869    18A     -0.515868

  @DF-RHF Final Energy:  -278.19642040045375

   => Energetics <=

    Nuclear Repulsion Energy =            115.1590719805389398
    One-Electron Energy =                -613.7442252213802476
    Two-Electron Energy =                 220.3887328403875472
    Total Energy =                       -278.1964204004537464

  Dipole Moment: [D]
     X:    -4.3619      Y:     0.0000      Z:    -0.0000     Total:     4.3619

      * MP2 total energy                      = -279.151056697531146
      * CCSD total energy                     = -279.182602238893651
      * CCSD(T) total energy                  = -279.212266250553967
*** Psi4 exiting successfully. Buy a developer a beer!
