                               Psi4 1.4a2.dev224

  ==> Input File <==

--------------------------------------------------------------------------
#Generated by lconvert.py for cbs job

memory 50 GB

molecule  {
0 1
  F      -0.914324    0.000012    0.000000
  C      -2.297346    0.000023    0.000000
  H      -2.651740    1.027062   -0.000001
  H      -2.651752   -0.513492    0.889440
  H      -2.651753   -0.513493   -0.889439
--
0 1
  F       2.590473    0.000019    0.000001
  C       1.207107    0.000018   -0.000000
  H       0.849274    1.025419   -0.000000
  H       0.849275   -0.512684    0.888023
  H       0.849276   -0.512683   -0.888025
units angstrom
no_reorient
symmetry c1
}

set {
scf_type DF
mp2_type DF
e_convergence 7
reference rhf
}

energy(cbs, corl_wfn='mp2', corl_basis='aug-cc-pv[tq]z', delta_wfn='ccsd(t)', delta_basis='aug-cc-pv[dt]z', bsse_type='cp')
--------------------------------------------------------------------------

    Molecular point group: c1
  Charge       = 0
  Multiplicity = 1
  Basis Set: AUG-CC-PVQZ
    Blend: AUG-CC-PVQZ
  Basis Set: (AUG-CC-PVQZ AUX)
    Blend: AUG-CC-PVQZ-JKFIT
  @DF-RHF Final Energy:  -139.10687886604401
    Total Energy =                       -139.1068788660439850
  Basis Set: (AUG-CC-PVQZ AUX)
    Blend: AUG-CC-PVQZ-RI
	 Reference Energy          =    -139.1068788660440134 [Eh]
	 Singles Energy            =      -0.0000000000000000 [Eh]
	 Same-Spin Energy          =      -0.1175819544854731 [Eh]
	 Opposite-Spin Energy      =      -0.4173162091554609 [Eh]
	 Correlation Energy        =      -0.5348981636409339 [Eh]
	 Total Energy              =    -139.6417770296849596 [Eh]
	 SCS Total Energy          =    -139.6468523018590702 [Eh]
    Molecular point group: c1
  Basis Set: AUG-CC-PVDZ
    Blend: AUG-CC-PVDZ
  Basis Set: (AUG-CC-PVDZ AUX)
    Blend: AUG-CC-PVDZ-JKFIT
  @DF-RHF Final Energy:  -139.05738489966640
    Total Energy =                       -139.0573848996664026
      * MP2 total energy                      = -139.421958249196962
      * CCSD total energy                     = -139.442027613420294
      * CCSD(T) total energy                  = -139.451292565864946
  @DF-RHF Final Energy:  -139.09739988083032
    Total Energy =                       -139.0973998808303236
      * MP2 total energy                      = -139.573976428443473
      * CCSD total energy                     = -139.589742169901655
      * CCSD(T) total energy                  = -139.604493695747180
  @DF-RHF Final Energy:  -139.10693393287525
    Total Energy =                       -139.1069339328752790
  @DF-RHF Final Energy:  -139.05811000037775
    Total Energy =                       -139.0581100003777522
      * MP2 total energy                      = -139.423442382372059
      * CCSD total energy                     = -139.443452425846885
      * CCSD(T) total energy                  = -139.452793719483736
  @DF-RHF Final Energy:  -139.09747401791915
    Total Energy =                       -139.0974740179191542
      * MP2 total energy                      = -139.575124511691001
      * CCSD total energy                     = -139.590895588404294
      * CCSD(T) total energy                  = -139.605674229530251
  @DF-RHF Final Energy:  -139.10700626460553
    Total Energy =                       -139.1070062646055590
  @DF-RHF Final Energy:  -139.05795470863765
    Total Energy =                       -139.0579547086376238
      * MP2 total energy                      = -139.423465946873080
      * CCSD total energy                     = -139.443534366776703
      * CCSD(T) total energy                  = -139.452930039949081
  @DF-RHF Final Energy:  -139.09767552786502
    Total Energy =                       -139.0976755278650216
      * MP2 total energy                      = -139.575317349654313
      * CCSD total energy                     = -139.591082994713787
      * CCSD(T) total energy                  = -139.605876275098069
  @DF-RHF Final Energy:  -139.10692383270563
    Total Energy =                       -139.1069238327056325
  @DF-RHF Final Energy:  -139.05744202522712
    Total Energy =                       -139.0574420252271182
      * MP2 total energy                      = -139.421988495836388
      * CCSD total energy                     = -139.442064816842816
      * CCSD(T) total energy                  = -139.451327318366651
  @DF-RHF Final Energy:  -139.09744646685687
    Total Energy =                       -139.0974464668568658
      * MP2 total energy                      = -139.573997861302530
      * CCSD total energy                     = -139.589771624088456
      * CCSD(T) total energy                  = -139.604520465752813
  @DF-RHF Final Energy:  -278.18865420781179
    Total Energy =                       -278.1886542078117941
	 Opposite-Spin Energy      =      -0.8390310459285075 [Eh]
	 Correlation Energy        =      -1.0779837010166990 [Eh]
	 Total Energy              =    -279.2666379088284998 [Eh]

	 ================> DF-SCS-MP2 Energies <==================
	-----------------------------------------------------------
	 SCS Same-Spin Scale       =       0.3333333333333333 [-]
	 SCS Opposite-Spin Scale   =       1.2000000000000000 [-]
	 SCS Same-Spin Energy      =      -0.0796508850293971 [Eh]
	 SCS Opposite-Spin Energy  =      -1.0068372551142091 [Eh]
	 SCS Correlation Energy    =      -1.0864881401436062 [Eh]
	 SCS Total Energy          =    -279.2751423479554092 [Eh]
	-----------------------------------------------------------

  Multiplicity = 1
  Basis Set: AUG-CC-PVDZ
    Blend: AUG-CC-PVDZ
  Basis Set: (AUG-CC-PVDZ AUX)
    Blend: AUG-CC-PVDZ-JKFIT
  @DF-RHF Final Energy:  -278.09056164004477
    Total Energy =                       -278.0905616400447684
      * MP2 total energy                      = -278.826191365882607
      * CCSD total energy                     = -278.865561783690339
      * CCSD(T) total energy                  = -278.884949628018660
    Molecular point group: c1

    Geometry (in Angstrom), charge = 0, multiplicity = 1:

       Center              X                  Y                   Z               Mass
    ------------   -----------------  -----------------  -----------------  -----------------
         F           -1.109956250600    -0.000005796782    -0.000000249586    18.998403162730
         C           -2.492978250600     0.000005203218    -0.000000249586    12.000000000000
         H           -2.847372250600     1.027044203218    -0.000001249586     1.007825032230
         H           -2.847384250600    -0.513509796782     0.889439750414     1.007825032230
         H           -2.847385250600    -0.513510796782    -0.889439249586     1.007825032230
         F            2.394840749400     0.000001203218     0.000000750414    18.998403162730
         C            1.011474749400     0.000000203218    -0.000000249586    12.000000000000
         H            0.653641749400     1.025401203218    -0.000000249586     1.007825032230
         H            0.653642749400    -0.512701796782     0.888022750414     1.007825032230
         H            0.653643749400    -0.512700796782    -0.888025249586     1.007825032230

  Charge       = 0
  Multiplicity = 1
  Basis Set: AUG-CC-PVTZ
    Blend: AUG-CC-PVTZ
  Basis Set: (AUG-CC-PVTZ AUX)
    Blend: AUG-CC-PVTZ-JKFIT

    Orbital Energies [Eh]
    ---------------------

    Doubly Occupied:

       1A    -26.296236     2A    -26.248748     3A    -11.319534
       4A    -11.272533     5A     -1.615831     6A     -1.559803
       7A     -0.989070     8A     -0.921448     9A     -0.722238
      10A     -0.722238    11A     -0.716317    12A     -0.666556
      13A     -0.666556    14A     -0.620179    15A     -0.554355
      16A     -0.554355    17A     -0.497119    18A     -0.497119

  @DF-RHF Final Energy:  -278.16982037222704

   => Energetics <=

    Nuclear Repulsion Energy =            127.9782975781198218
    One-Electron Energy =                -639.4157623429808837
    Two-Electron Energy =                 233.2676443926339687
    Total Energy =                       -278.1698203722270364

  Dipole Moment: [D]
     X:    -4.7804      Y:     0.0000      Z:    -0.0000     Total:     4.7804

      * MP2 total energy                      = -279.131656543588747
      * CCSD total energy                     = -279.162507232384314
      * CCSD(T) total energy                  = -279.192954878665660
*** Psi4 exiting successfully. Buy a developer a beer!
