                               Psi4 1.4a2.dev224

  ==> Input File <==

--------------------------------------------------------------------------
#Generated by lconvert.py for cbs job

memory 50 GB

molecule  {
0 1
 Cl      -0.951589   -0.634073    0.000553
  C      -0.802054    1.145009   -0.005546
  H       0.246631    1.395493   -0.109289
  H      -1.376732    1.527611   -0.840161
  H      -1.196867    1.519065    0.931130
--
0 1
  O       1.445377    0.041163    0.017741
  H       2.237260   -0.471158   -0.154468
  H       0.741304   -0.614110    0.020001
units angstrom
no_reorient
symmetry c1
}

set {
scf_type DF
mp2_type DF
e_convergence 7
reference rhf
}

energy(cbs, corl_wfn='mp2', corl_basis='aug-cc-pv[tq]z', delta_wfn='ccsd(t)', delta_basis='aug-cc-pv[dt]z', bsse_type='cp')
--------------------------------------------------------------------------

    Molecular point group: c1
  Charge       = 0
  Multiplicity = 1
  Basis Set: AUG-CC-PVQZ
    Blend: AUG-CC-PVQZ
  Basis Set: (AUG-CC-PVQZ AUX)
    Blend: AUG-CC-PVQZ-JKFIT
  @DF-RHF Final Energy:   -76.06571931121918
    Total Energy =                        -76.0657193112191976
  Basis Set: (AUG-CC-PVQZ AUX)
    Blend: AUG-CC-PVQZ-RI
	 Reference Energy          =     -76.0657193112191834 [Eh]
	 Singles Energy            =      -0.0000000000000000 [Eh]
	 Same-Spin Energy          =      -0.0727257122544778 [Eh]
	 Opposite-Spin Energy      =      -0.2442815473241035 [Eh]
	 Correlation Energy        =      -0.3170072595785813 [Eh]
	 Total Energy              =     -76.3827265707977716 [Eh]
	 SCS Total Energy          =     -76.3830990720929321 [Eh]
    Molecular point group: c1
  Basis Set: AUG-CC-PVDZ
    Blend: AUG-CC-PVDZ
  Basis Set: (AUG-CC-PVDZ AUX)
    Blend: AUG-CC-PVDZ-JKFIT
  @DF-RHF Final Energy:   -76.04117889656186
    Total Energy =                        -76.0411788965618598
      * MP2 total energy                      =  -76.263320804971499
      * CCSD total energy                     =  -76.270815408868543
      * CCSD(T) total energy                  =  -76.276073705937335
  @DF-RHF Final Energy:   -76.06034091753179
    Total Energy =                        -76.0603409175317893
      * MP2 total energy                      =  -76.344111868447726
      * CCSD total energy                     =  -76.348695547986438
      * CCSD(T) total energy                  =  -76.357491049710219
  @DF-RHF Final Energy:   -76.06576539398792
    Total Energy =                        -76.0657653939879168
  @DF-RHF Final Energy:   -76.04184070643912
    Total Energy =                        -76.0418407064391317
      * MP2 total energy                      =  -76.265085927880065
      * CCSD total energy                     =  -76.272508189386542
      * CCSD(T) total energy                  =  -76.277915308154050
  @DF-RHF Final Energy:   -76.06044598624833
    Total Energy =                        -76.0604459862483253
      * MP2 total energy                      =  -76.345301448013913
      * CCSD total energy                     =  -76.349844923771485
      * CCSD(T) total energy                  =  -76.358687373182008
  @DF-RHF Final Energy:  -499.15498167608780
    Total Energy =                       -499.1549816760878002
  @DF-RHF Final Energy:  -499.12294504585259
    Total Energy =                       -499.1229450458525889
      * MP2 total energy                      = -499.439188231350329
      * CCSD total energy                     = -499.467907116969741
      * CCSD(T) total energy                  = -499.477878937325499
  @DF-RHF Final Energy:  -499.14897608591610
    Total Energy =                       -499.1489760859161038
      * MP2 total energy                      = -499.587420436327704
      * CCSD total energy                     = -499.615875269338289
      * CCSD(T) total energy                  = -499.633281681224616
  @DF-RHF Final Energy:  -499.15495233952618
    Total Energy =                       -499.1549523395261758
  @DF-RHF Final Energy:  -499.12217227416374
    Total Energy =                       -499.1221722741637450
      * MP2 total energy                      = -499.435144721224901
      * CCSD total energy                     = -499.463829634991953
      * CCSD(T) total energy                  = -499.473505435345885
  @DF-RHF Final Energy:  -499.14887814074314
    Total Energy =                       -499.1488781407431361
      * MP2 total energy                      = -499.583798865493350
      * CCSD total energy                     = -499.612412522942634
      * CCSD(T) total energy                  = -499.629675411690471
  @DF-RHF Final Energy:  -575.17504170601273
    Total Energy =                       -575.1750417060127347
	 Opposite-Spin Energy      =      -0.6418841378955795 [Eh]
	 Correlation Energy        =      -0.8350785329796484 [Eh]
	 Total Energy              =    -576.0101202389923856 [Eh]

	 ================> DF-SCS-MP2 Energies <==================
	-----------------------------------------------------------
	 SCS Same-Spin Scale       =       0.3333333333333333 [-]
	 SCS Opposite-Spin Scale   =       1.2000000000000000 [-]
	 SCS Same-Spin Energy      =      -0.0643981316946896 [Eh]
	 SCS Opposite-Spin Energy  =      -0.7702609654746954 [Eh]
	 SCS Correlation Energy    =      -0.8346590971693850 [Eh]
	 SCS Total Energy          =    -576.0097008031821133 [Eh]
	-----------------------------------------------------------

  Multiplicity = 1
  Basis Set: AUG-CC-PVDZ
    Blend: AUG-CC-PVDZ
  Basis Set: (AUG-CC-PVDZ AUX)
    Blend: AUG-CC-PVDZ-JKFIT
  @DF-RHF Final Energy:  -575.11846835987183
    Total Energy =                       -575.1184683598718266
      * MP2 total energy                      = -575.668516297270003
      * CCSD total energy                     = -575.701372310395755
      * CCSD(T) total energy                  = -575.718129329293220
    Molecular point group: c1

    Geometry (in Angstrom), charge = 0, multiplicity = 1:

       Center              X                  Y                   Z               Mass
    ------------   -----------------  -----------------  -----------------  -----------------
         CL          -0.670347329324    -0.569500308478    -0.000661198244    34.968852682000
         C           -0.520812329324     1.209581691522    -0.006760198244    12.000000000000
         H            0.527872670676     1.460065691522    -0.110503198244     1.007825032230
         H           -1.095490329324     1.592183691522    -0.841375198244     1.007825032230
         H           -0.915625329324     1.583637691522     0.929915801756     1.007825032230
         O            1.726618670676     0.105735691522     0.016526801756    15.994914619570
         H            2.518501670676    -0.406585308478    -0.155682198244     1.007825032230
         H            1.022545670676    -0.549537308478     0.018786801756     1.007825032230

  Charge       = 0
  Multiplicity = 1
  Basis Set: AUG-CC-PVTZ
    Blend: AUG-CC-PVTZ
  Basis Set: (AUG-CC-PVTZ AUX)
    Blend: AUG-CC-PVTZ-JKFIT

    Orbital Energies [Eh]
    ---------------------

    Doubly Occupied:

       1A   -104.834009     2A    -20.534855     3A    -11.275659
       4A    -10.560814     5A     -8.027366     6A     -8.026140
       7A     -8.025705     8A     -1.346317     9A     -1.141842
      10A     -0.918471    11A     -0.735776    12A     -0.622891
      13A     -0.615130    14A     -0.554836    15A     -0.549937
      16A     -0.494273    17A     -0.445149    18A     -0.433862

  @DF-RHF Final Energy:  -575.16354722690846

   => Energetics <=

    Nuclear Repulsion Energy =            115.9779353682512806
    One-Electron Energy =               -1023.9969003411407584
    Two-Electron Energy =                 332.8554177459810717
    Total Energy =                       -575.1635472269084630

  Dipole Moment: [D]
     X:     0.0862      Y:     0.3665      Z:    -0.3077     Total:     0.4862

      * MP2 total energy                      = -575.901346886959800
      * CCSD total energy                     = -575.930809789654973
      * CCSD(T) total energy                  = -575.959006031611011
*** Psi4 exiting successfully. Buy a developer a beer!
