                               Psi4 1.4a2.dev224

  ==> Input File <==

--------------------------------------------------------------------------
#Generated by lconvert.py for cbs job

memory 50 GB

molecule  {
0 1
 Cl      -0.951589   -0.634073    0.000553
  C      -0.802054    1.145009   -0.005546
  H       0.246631    1.395493   -0.109289
  H      -1.376732    1.527611   -0.840161
  H      -1.196867    1.519065    0.931130
--
0 1
  O       2.323088    0.063524    0.021291
  H       3.114971   -0.448797   -0.150918
  H       1.619015   -0.591749    0.023551
units angstrom
no_reorient
symmetry c1
}

set {
scf_type DF
mp2_type DF
e_convergence 7
reference rhf
}

energy(cbs, corl_wfn='mp2', corl_basis='aug-cc-pv[tq]z', delta_wfn='ccsd(t)', delta_basis='aug-cc-pv[dt]z', bsse_type='cp')
--------------------------------------------------------------------------

    Molecular point group: c1
  Charge       = 0
  Multiplicity = 1
  Basis Set: AUG-CC-PVQZ
    Blend: AUG-CC-PVQZ
  Basis Set: (AUG-CC-PVQZ AUX)
    Blend: AUG-CC-PVQZ-JKFIT
  @DF-RHF Final Energy:   -76.06571931121172
    Total Energy =                        -76.0657193112117227
  Basis Set: (AUG-CC-PVQZ AUX)
    Blend: AUG-CC-PVQZ-RI
	 Reference Energy          =     -76.0657193112117227 [Eh]
	 Singles Energy            =      -0.0000000000000000 [Eh]
	 Same-Spin Energy          =      -0.0727257122545224 [Eh]
	 Opposite-Spin Energy      =      -0.2442815473241609 [Eh]
	 Correlation Energy        =      -0.3170072595786833 [Eh]
	 Total Energy              =     -76.3827265707904104 [Eh]
	 SCS Total Energy          =     -76.3830990720855567 [Eh]
    Molecular point group: c1
  Basis Set: AUG-CC-PVDZ
    Blend: AUG-CC-PVDZ
  Basis Set: (AUG-CC-PVDZ AUX)
    Blend: AUG-CC-PVDZ-JKFIT
  @DF-RHF Final Energy:   -76.04117889656395
    Total Energy =                        -76.0411788965639488
      * MP2 total energy                      =  -76.263320804971443
      * CCSD total energy                     =  -76.270815408868515
      * CCSD(T) total energy                  =  -76.276073705937293
  @DF-RHF Final Energy:   -76.06034091752876
    Total Energy =                        -76.0603409175287624
      * MP2 total energy                      =  -76.344111868447598
      * CCSD total energy                     =  -76.348695547986281
      * CCSD(T) total energy                  =  -76.357491049710077
  @DF-RHF Final Energy:   -76.06574093373341
    Total Energy =                        -76.0657409337334087
  @DF-RHF Final Energy:   -76.04150163653831
    Total Energy =                        -76.0415016365383138
      * MP2 total energy                      =  -76.264029212578066
      * CCSD total energy                     =  -76.271491764106429
      * CCSD(T) total energy                  =  -76.276803550384145
  @DF-RHF Final Energy:   -76.06039111173862
    Total Energy =                        -76.0603911117386389
      * MP2 total energy                      =  -76.344564380992750
      * CCSD total energy                     =  -76.349134560123844
      * CCSD(T) total energy                  =  -76.357950435442163
  @DF-RHF Final Energy:  -499.15496618718925
    Total Energy =                       -499.1549661871892454
  @DF-RHF Final Energy:  -499.12245066817252
    Total Energy =                       -499.1224506681725188
      * MP2 total energy                      = -499.436501309706784
      * CCSD total energy                     = -499.465183971725651
      * CCSD(T) total energy                  = -499.474954027547142
  @DF-RHF Final Energy:  -499.14892485082743
    Total Energy =                       -499.1489248508274272
      * MP2 total energy                      = -499.584872902518896
      * CCSD total energy                     = -499.613445151219594
      * CCSD(T) total energy                  = -499.630749245359596
  @DF-RHF Final Energy:  -499.15495233965771
    Total Energy =                       -499.1549523396577115
  @DF-RHF Final Energy:  -499.12217227417221
    Total Energy =                       -499.1221722741722147
      * MP2 total energy                      = -499.435144721223764
      * CCSD total energy                     = -499.463829634990873
      * CCSD(T) total energy                  = -499.473505435344805
  @DF-RHF Final Energy:  -499.14887814068010
    Total Energy =                       -499.1488781406800967
      * MP2 total energy                      = -499.583798865492383
      * CCSD total energy                     = -499.612412522941554
      * CCSD(T) total energy                  = -499.629675411689220
  @DF-RHF Final Energy:  -575.22341410310707
    Total Energy =                       -575.2234141031070749
	 Opposite-Spin Energy      =      -0.6343242679752779 [Eh]
	 Correlation Energy        =      -0.8206728055643445 [Eh]
	 Total Energy              =    -576.0440869086713747 [Eh]

	 ================> DF-SCS-MP2 Energies <==================
	-----------------------------------------------------------
	 SCS Same-Spin Scale       =       0.3333333333333333 [-]
	 SCS Opposite-Spin Scale   =       1.2000000000000000 [-]
	 SCS Same-Spin Energy      =      -0.0621161791963555 [Eh]
	 SCS Opposite-Spin Energy  =      -0.7611891215703334 [Eh]
	 SCS Correlation Energy    =      -0.8233053007666890 [Eh]
	 SCS Total Energy          =    -576.0467194038737944 [Eh]
	-----------------------------------------------------------

  Multiplicity = 1
  Basis Set: AUG-CC-PVDZ
    Blend: AUG-CC-PVDZ
  Basis Set: (AUG-CC-PVDZ AUX)
    Blend: AUG-CC-PVDZ-JKFIT
  @DF-RHF Final Energy:  -575.16666189269722
    Total Energy =                       -575.1666618926972205
      * MP2 total energy                      = -575.705520456587124
      * CCSD total energy                     = -575.741136711025774
      * CCSD(T) total energy                  = -575.756580560332395
    Molecular point group: c1

    Geometry (in Angstrom), charge = 0, multiplicity = 1:

       Center              X                  Y                   Z               Mass
    ------------   -----------------  -----------------  -----------------  -----------------
         CL          -0.902809069801    -0.575422618872    -0.001601415671    34.968852682000
         C           -0.753274069801     1.203659381128    -0.007700415671    12.000000000000
         H            0.295410930199     1.454143381128    -0.111443415671     1.007825032230
         H           -1.327952069801     1.586261381128    -0.842315415671     1.007825032230
         H           -1.148087069801     1.577715381128     0.928975584329     1.007825032230
         O            2.371867930199     0.122174381128     0.019136584329    15.994914619570
         H            3.163750930199    -0.390146618872    -0.153072415671     1.007825032230
         H            1.667794930199    -0.533098618872     0.021396584329     1.007825032230

  Charge       = 0
  Multiplicity = 1
  Basis Set: AUG-CC-PVTZ
    Blend: AUG-CC-PVTZ
  Basis Set: (AUG-CC-PVTZ AUX)
    Blend: AUG-CC-PVTZ-JKFIT

    Orbital Energies [Eh]
    ---------------------

    Doubly Occupied:

       1A   -104.831502     2A    -20.562719     3A    -11.286498
       4A    -10.555942     5A     -8.022823     6A     -8.021064
       7A     -8.021034     8A     -1.349288     9A     -1.131906
      10A     -0.915395    11A     -0.715139    12A     -0.617528
      13A     -0.615917    14A     -0.583360    15A     -0.547243
      16A     -0.507066    17A     -0.442217    18A     -0.440536

  @DF-RHF Final Energy:  -575.21201399292875

   => Energetics <=

    Nuclear Repulsion Energy =            101.9342047045026760
    One-Electron Energy =                -995.9580817469563954
    Two-Electron Energy =                 318.8118630495249022
    Total Energy =                       -575.2120139929288598

  Dipole Moment: [D]
     X:     0.2399      Y:     0.3356      Z:    -0.2944     Total:     0.5068

      * MP2 total energy                      = -575.935101095483674
      * CCSD total energy                     = -575.967650678084397
      * CCSD(T) total energy                  = -575.994265636367118
*** Psi4 exiting successfully. Buy a developer a beer!
