                               Psi4 1.4a2.dev224

  ==> Input File <==

--------------------------------------------------------------------------
#Generated by lconvert.py for cbs job

memory 50 GB

molecule  {
0 1
 Cl       2.111707   -0.538824    0.000181
  C       1.762530    1.209208    0.000110
  H       0.687619    1.343583    0.000122
  H       2.201980    1.643830   -0.889662
  H       2.202008    1.643908    0.889831
--
0 1
 Cl      -2.111341    0.538901    0.000199
  C      -1.762431   -1.209182    0.000117
  H      -2.202072   -1.643755   -0.889585
  H      -2.201855   -1.643795    0.889907
  H      -0.687542   -1.343741   -0.000015
units angstrom
no_reorient
symmetry c1
}

set {
scf_type DF
mp2_type DF
e_convergence 7
reference rhf
}

energy(cbs, corl_wfn='mp2', corl_basis='aug-cc-pv[tq]z', delta_wfn='ccsd(t)', delta_basis='aug-cc-pv[dt]z', bsse_type='cp')
--------------------------------------------------------------------------

    Molecular point group: c1
  Charge       = 0
  Multiplicity = 1
  Basis Set: AUG-CC-PVQZ
    Blend: AUG-CC-PVQZ
  Basis Set: (AUG-CC-PVQZ AUX)
    Blend: AUG-CC-PVQZ-JKFIT
  @DF-RHF Final Energy:  -499.15495590996233
    Total Energy =                       -499.1549559099622684
  Basis Set: (AUG-CC-PVQZ AUX)
    Blend: AUG-CC-PVQZ-RI
	 Reference Energy          =    -499.1549559099623252 [Eh]
	 Singles Energy            =      -0.0000000000000000 [Eh]
	 Same-Spin Energy          =      -0.1117425171392885 [Eh]
	 Opposite-Spin Energy      =      -0.3880952950282687 [Eh]
	 Correlation Energy        =      -0.4998378121675572 [Eh]
	 Total Energy              =    -499.6547937221299094 [Eh]
	 SCS Total Energy          =    -499.6579177697093428 [Eh]
    Molecular point group: c1
  Basis Set: AUG-CC-PVDZ
    Blend: AUG-CC-PVDZ
  Basis Set: (AUG-CC-PVDZ AUX)
    Blend: AUG-CC-PVDZ-JKFIT
  @DF-RHF Final Energy:  -499.12214527106784
    Total Energy =                       -499.1221452710678363
      * MP2 total energy                      = -499.435135441829175
      * CCSD total energy                     = -499.463809826818419
      * CCSD(T) total energy                  = -499.473477279103349
  @DF-RHF Final Energy:  -499.14887304367460
    Total Energy =                       -499.1488730436745982
      * MP2 total energy                      = -499.583825277356652
      * CCSD total energy                     = -499.612428936727895
      * CCSD(T) total energy                  = -499.629681101117967
  @DF-RHF Final Energy:  -499.15496941174212
    Total Energy =                       -499.1549694117421154
  @DF-RHF Final Energy:  -499.12240115848130
    Total Energy =                       -499.1224011584812956
      * MP2 total energy                      = -499.436369311966928
      * CCSD total energy                     = -499.465029322912073
      * CCSD(T) total energy                  = -499.474783566531983
  @DF-RHF Final Energy:  -499.14892325299030
    Total Energy =                       -499.1489232529903006
      * MP2 total energy                      = -499.584828283063416
      * CCSD total energy                     = -499.613399883679222
      * CCSD(T) total energy                  = -499.630686084769593
  @DF-RHF Final Energy:  -499.15496942575203
    Total Energy =                       -499.1549694257520287
  @DF-RHF Final Energy:  -499.12240116286569
    Total Energy =                       -499.1224011628656854
      * MP2 total energy                      = -499.436368984800993
      * CCSD total energy                     = -499.465028989325504
      * CCSD(T) total energy                  = -499.474783218855521
  @DF-RHF Final Energy:  -499.14892326689102
    Total Energy =                       -499.1489232668910176
      * MP2 total energy                      = -499.584828096434023
      * CCSD total energy                     = -499.613399723145619
      * CCSD(T) total energy                  = -499.630685920993415
  @DF-RHF Final Energy:  -499.15495592517675
    Total Energy =                       -499.1549559251767505
  @DF-RHF Final Energy:  -499.12214530873234
    Total Energy =                       -499.1221453087323425
      * MP2 total energy                      = -499.435135445598519
      * CCSD total energy                     = -499.463809835630457
      * CCSD(T) total energy                  = -499.473477292645157
  @DF-RHF Final Energy:  -499.14887306642743
    Total Energy =                       -499.1488730664274271
      * MP2 total energy                      = -499.583825268303769
      * CCSD total energy                     = -499.612428933370438
      * CCSD(T) total energy                  = -499.629681105001339
  @DF-RHF Final Energy:  -998.31090940828233
    Total Energy =                       -998.3109094082823276
	 Opposite-Spin Energy      =      -0.7782933359576670 [Eh]
	 Correlation Energy        =      -1.0036713899305241 [Eh]
	 Total Energy              =    -999.3145807982128872 [Eh]

	 ================> DF-SCS-MP2 Energies <==================
	-----------------------------------------------------------
	 SCS Same-Spin Scale       =       0.3333333333333333 [-]
	 SCS Opposite-Spin Scale   =       1.2000000000000000 [-]
	 SCS Same-Spin Energy      =      -0.0751260179909524 [Eh]
	 SCS Opposite-Spin Energy  =      -0.9339520031492003 [Eh]
	 SCS Correlation Energy    =      -1.0090780211401527 [Eh]
	 SCS Total Energy          =    -999.3199874294224401 [Eh]
	-----------------------------------------------------------

  Multiplicity = 1
  Basis Set: AUG-CC-PVDZ
    Blend: AUG-CC-PVDZ
  Basis Set: (AUG-CC-PVDZ AUX)
    Blend: AUG-CC-PVDZ-JKFIT
  @DF-RHF Final Energy:  -998.24586791238801
    Total Energy =                       -998.2458679123880074
      * MP2 total energy                      = -998.876384791226201
      * CCSD total energy                     = -998.933126006283487
      * CCSD(T) total energy                  = -998.953009237887386
    Molecular point group: c1

    Geometry (in Angstrom), charge = 0, multiplicity = 1:

       Center              X                  Y                   Z               Mass
    ------------   -----------------  -----------------  -----------------  -----------------
         CL           2.111565721522    -0.538854353022     0.000014826068    34.968852682000
         C            1.762388721522     1.209177646978    -0.000056173932    12.000000000000
         H            0.687477721522     1.343552646978    -0.000044173932     1.007825032230
         H            2.201838721522     1.643799646978    -0.889828173932     1.007825032230
         H            2.201866721522     1.643877646978     0.889664826068     1.007825032230
         CL          -2.111482278478     0.538870646978     0.000032826068    34.968852682000
         C           -1.762572278478    -1.209212353022    -0.000049173932    12.000000000000
         H           -2.202213278478    -1.643785353022    -0.889751173932     1.007825032230
         H           -2.201996278478    -1.643825353022     0.889740826068     1.007825032230
         H           -0.687683278478    -1.343771353022    -0.000181173932     1.007825032230

  Charge       = 0
  Multiplicity = 1
  Basis Set: AUG-CC-PVTZ
    Blend: AUG-CC-PVTZ
  Basis Set: (AUG-CC-PVTZ AUX)
    Blend: AUG-CC-PVTZ-JKFIT

    Orbital Energies [Eh]
    ---------------------

    Doubly Occupied:

       1A   -104.828032     2A   -104.828028     3A    -11.286325
       4A    -11.286320     5A    -10.552443     6A    -10.552438
       7A     -8.019342     8A     -8.019337     9A     -8.017526
      10A     -8.017525    11A     -8.017521    12A     -8.017521
      13A     -1.130720    14A     -1.128145    15A     -0.915997
      16A     -0.912542    17A     -0.626150    18A     -0.617264
      19A     -0.616280    20A     -0.607769    21A     -0.547572
      22A     -0.544215    23A     -0.446877    24A     -0.437622
      25A     -0.437498    26A     -0.429266

  @DF-RHF Final Energy:  -998.29881802815862

   => Energetics <=

    Nuclear Repulsion Energy =            189.3123613185020986
    One-Electron Energy =               -1753.5418085602982501
    Two-Electron Energy =                 565.9306292136375305
    Total Energy =                       -998.2988180281586210

  Dipole Moment: [D]
     X:    -0.0004      Y:    -0.0001      Z:    -0.0002     Total:     0.0005

      * MP2 total energy                      = -999.173740509943627
      * CCSD total energy                     = -999.230197016855413
      * CCSD(T) total energy                  = -999.265268006592123
*** Psi4 exiting successfully. Buy a developer a beer!
