                               Psi4 1.4a2.dev224

  ==> Input File <==

--------------------------------------------------------------------------
#Generated by lconvert.py for cbs job

memory 50 GB

molecule  {
0 1
 Cl       2.111707   -0.538824    0.000181
  C       1.762530    1.209208    0.000110
  H       0.687619    1.343583    0.000122
  H       2.201980    1.643830   -0.889662
  H       2.202008    1.643908    0.889831
--
0 1
 Cl      -1.185853    0.539698    0.000196
  C      -0.836943   -1.208385    0.000114
  H      -1.276584   -1.642958   -0.889588
  H      -1.276367   -1.642998    0.889904
  H       0.237946   -1.342944   -0.000018
units angstrom
no_reorient
symmetry c1
}

set {
scf_type DF
mp2_type DF
e_convergence 7
reference rhf
}

energy(cbs, corl_wfn='mp2', corl_basis='aug-cc-pv[tq]z', delta_wfn='ccsd(t)', delta_basis='aug-cc-pv[dt]z', bsse_type='cp')
--------------------------------------------------------------------------

    Molecular point group: c1
  Charge       = 0
  Multiplicity = 1
  Basis Set: AUG-CC-PVQZ
    Blend: AUG-CC-PVQZ
  Basis Set: (AUG-CC-PVQZ AUX)
    Blend: AUG-CC-PVQZ-JKFIT
  @DF-RHF Final Energy:  -499.15495591013922
    Total Energy =                       -499.1549559101391651
  Basis Set: (AUG-CC-PVQZ AUX)
    Blend: AUG-CC-PVQZ-RI
	 Reference Energy          =    -499.1549559101392219 [Eh]
	 Singles Energy            =      -0.0000000000000000 [Eh]
	 Same-Spin Energy          =      -0.1117425171395901 [Eh]
	 Opposite-Spin Energy      =      -0.3880952950295064 [Eh]
	 Correlation Energy        =      -0.4998378121690965 [Eh]
	 Total Energy              =    -499.6547937223083409 [Eh]
	 SCS Total Energy          =    -499.6579177698878311 [Eh]
    Molecular point group: c1
  Basis Set: AUG-CC-PVDZ
    Blend: AUG-CC-PVDZ
  Basis Set: (AUG-CC-PVDZ AUX)
    Blend: AUG-CC-PVDZ-JKFIT
  @DF-RHF Final Energy:  -499.12214527102293
    Total Energy =                       -499.1221452710229300
      * MP2 total energy                      = -499.435135441830937
      * CCSD total energy                     = -499.463809826820182
      * CCSD(T) total energy                  = -499.473477279105168
  @DF-RHF Final Energy:  -499.14887304361434
    Total Energy =                       -499.1488730436143442
      * MP2 total energy                      = -499.583825277354549
      * CCSD total energy                     = -499.612428936725792
      * CCSD(T) total energy                  = -499.629681101115864
  @DF-RHF Final Energy:  -499.15498082609258
    Total Energy =                       -499.1549808260925829
  @DF-RHF Final Energy:  -499.12273000417400
    Total Energy =                       -499.1227300041740023
      * MP2 total energy                      = -499.438445721730659
      * CCSD total energy                     = -499.467118828166406
      * CCSD(T) total energy                  = -499.477019093354329
  @DF-RHF Final Energy:  -499.14896231198088
    Total Energy =                       -499.1489623119808812
      * MP2 total energy                      = -499.586528866846436
      * CCSD total energy                     = -499.615030197770068
      * CCSD(T) total energy                  = -499.632385681273036
  @DF-RHF Final Energy:  -499.15498083791016
    Total Energy =                       -499.1549808379101592
  @DF-RHF Final Energy:  -499.12272999352160
    Total Energy =                       -499.1227299935216024
      * MP2 total energy                      = -499.438444912074999
      * CCSD total energy                     = -499.467118002139784
      * CCSD(T) total energy                  = -499.477018219244940
  @DF-RHF Final Energy:  -499.14896232130485
    Total Energy =                       -499.1489623213048503
      * MP2 total energy                      = -499.586528164208517
      * CCSD total energy                     = -499.615029559518916
      * CCSD(T) total energy                  = -499.632385014413444
  @DF-RHF Final Energy:  -499.15495592520853
    Total Energy =                       -499.1549559252085260
  @DF-RHF Final Energy:  -499.12214530879129
    Total Energy =                       -499.1221453087912892
      * MP2 total energy                      = -499.435135445598860
      * CCSD total energy                     = -499.463809835630855
      * CCSD(T) total energy                  = -499.473477292645555
  @DF-RHF Final Energy:  -499.14887306639395
    Total Energy =                       -499.1488730663939464
      * MP2 total energy                      = -499.583825268304679
      * CCSD total energy                     = -499.612428933371405
      * CCSD(T) total energy                  = -499.629681105002305
  @DF-RHF Final Energy:  -998.27614987180846
    Total Energy =                       -998.2761498718084567
	 Opposite-Spin Energy      =      -0.7861694703183557 [Eh]
	 Correlation Energy        =      -1.0182160723640823 [Eh]
	 Total Energy              =    -999.2943659441725686 [Eh]

	 ================> DF-SCS-MP2 Energies <==================
	-----------------------------------------------------------
	 SCS Same-Spin Scale       =       0.3333333333333333 [-]
	 SCS Opposite-Spin Scale   =       1.2000000000000000 [-]
	 SCS Same-Spin Energy      =      -0.0773488673485755 [Eh]
	 SCS Opposite-Spin Energy  =      -0.9434033643820268 [Eh]
	 SCS Correlation Energy    =      -1.0207522317306024 [Eh]
	 SCS Total Energy          =    -999.2969021035390824 [Eh]
	-----------------------------------------------------------

  Multiplicity = 1
  Basis Set: AUG-CC-PVDZ
    Blend: AUG-CC-PVDZ
  Basis Set: (AUG-CC-PVDZ AUX)
    Blend: AUG-CC-PVDZ-JKFIT
  @DF-RHF Final Energy:  -998.21141637261076
    Total Energy =                       -998.2114163726107563
      * MP2 total energy                      = -998.853844896874989
      * CCSD total energy                     = -998.908069088861794
      * CCSD(T) total energy                  = -998.929250035364475
    Molecular point group: c1

    Geometry (in Angstrom), charge = 0, multiplicity = 1:

       Center              X                  Y                   Z               Mass
    ------------   -----------------  -----------------  -----------------  -----------------
         CL           1.648821721522    -0.539252853022     0.000016326068    34.968852682000
         C            1.299644721522     1.208779146978    -0.000054673932    12.000000000000
         H            0.224733721522     1.343154146978    -0.000042673932     1.007825032230
         H            1.739094721522     1.643401146978    -0.889826673932     1.007825032230
         H            1.739122721522     1.643479146978     0.889666326068     1.007825032230
         CL          -1.648738278478     0.539269146978     0.000031326068    34.968852682000
         C           -1.299828278478    -1.208813853022    -0.000050673932    12.000000000000
         H           -1.739469278478    -1.643386853022    -0.889752673932     1.007825032230
         H           -1.739252278478    -1.643426853022     0.889739326068     1.007825032230
         H           -0.224939278478    -1.343372853022    -0.000182673932     1.007825032230

  Charge       = 0
  Multiplicity = 1
  Basis Set: AUG-CC-PVTZ
    Blend: AUG-CC-PVTZ
  Basis Set: (AUG-CC-PVTZ AUX)
    Blend: AUG-CC-PVTZ-JKFIT

    Orbital Energies [Eh]
    ---------------------

    Doubly Occupied:

       1A   -104.825310     2A   -104.825303     3A    -11.273429
       4A    -11.273411     5A    -10.551069     6A    -10.551060
       7A     -8.017802     8A     -8.017794     9A     -8.016220
      10A     -8.016211    11A     -8.016084    12A     -8.016076
      13A     -1.142294    14A     -1.121663    15A     -0.926445
      16A     -0.898683    17A     -0.656025    18A     -0.614502
      19A     -0.608122    20A     -0.590781    21A     -0.553756
      22A     -0.531977    23A     -0.464357    24A     -0.439920
      25A     -0.438641    26A     -0.398331

  @DF-RHF Final Energy:  -998.26409830841362

   => Energetics <=

    Nuclear Repulsion Energy =            212.8901743133465629
    One-Electron Energy =               -1800.7380101044650473
    Two-Electron Energy =                 589.5837374827049189
    Total Energy =                       -998.2640983084136224

  Dipole Moment: [D]
     X:    -0.0006      Y:    -0.0001      Z:    -0.0002     Total:     0.0007

      * MP2 total energy                      = -999.153931738177107
      * CCSD total energy                     = -999.207397856365787
      * CCSD(T) total energy                  = -999.244121028264317
*** Psi4 exiting successfully. Buy a developer a beer!
