                               Psi4 1.4a2.dev224

  ==> Input File <==

--------------------------------------------------------------------------
#Generated by lconvert.py for cbs job

memory 50 GB

molecule  {
0 1
 Cl      -1.010165    0.000009    0.000000
  C      -2.790218    0.000024    0.000000
  H      -3.133660    1.027425    0.000000
  H      -3.133673   -0.513673    0.889753
  H      -3.133673   -0.513673   -0.889753
--
0 1
 Cl       4.271969    0.000016    0.000000
  C       2.492036    0.000018    0.000000
  H       2.145862    1.026627    0.000000
  H       2.145861   -0.513286    0.889069
  H       2.145861   -0.513286   -0.889069
units angstrom
no_reorient
symmetry c1
}

set {
scf_type DF
mp2_type DF
e_convergence 7
reference rhf
}

energy(cbs, corl_wfn='mp2', corl_basis='aug-cc-pv[tq]z', delta_wfn='ccsd(t)', delta_basis='aug-cc-pv[dt]z', bsse_type='cp')
--------------------------------------------------------------------------

    Molecular point group: c1
  Charge       = 0
  Multiplicity = 1
  Basis Set: AUG-CC-PVQZ
    Blend: AUG-CC-PVQZ
  Basis Set: (AUG-CC-PVQZ AUX)
    Blend: AUG-CC-PVQZ-JKFIT
  @DF-RHF Final Energy:  -499.15494479405345
    Total Energy =                       -499.1549447940534492
  Basis Set: (AUG-CC-PVQZ AUX)
    Blend: AUG-CC-PVQZ-RI
	 Reference Energy          =    -499.1549447940534492 [Eh]
	 Singles Energy            =      -0.0000000000000000 [Eh]
	 Same-Spin Energy          =      -0.1117648222850601 [Eh]
	 Opposite-Spin Energy      =      -0.3881006170739663 [Eh]
	 Correlation Energy        =      -0.4998654393590264 [Eh]
	 Total Energy              =    -499.6548102334124906 [Eh]
	 SCS Total Energy          =    -499.6579204753039107 [Eh]
    Molecular point group: c1
  Basis Set: AUG-CC-PVDZ
    Blend: AUG-CC-PVDZ
  Basis Set: (AUG-CC-PVDZ AUX)
    Blend: AUG-CC-PVDZ-JKFIT
  @DF-RHF Final Energy:  -499.12209702866795
    Total Energy =                       -499.1220970286679517
      * MP2 total energy                      = -499.435105189902913
      * CCSD total energy                     = -499.463769721643303
      * CCSD(T) total energy                  = -499.473429064835329
  @DF-RHF Final Energy:  -499.14885293203190
    Total Energy =                       -499.1488529320319003
      * MP2 total energy                      = -499.583834232496827
      * CCSD total energy                     = -499.612429045693091
      * CCSD(T) total energy                  = -499.629670191884713
  @DF-RHF Final Energy:  -499.15495520205610
    Total Energy =                       -499.1549552020561009
  @DF-RHF Final Energy:  -499.12224971785622
    Total Energy =                       -499.1222497178562207
      * MP2 total energy                      = -499.435633792527369
      * CCSD total energy                     = -499.464287949595644
      * CCSD(T) total energy                  = -499.473979691146894
  @DF-RHF Final Energy:  -499.14887711982334
    Total Energy =                       -499.1488771198233394
      * MP2 total energy                      = -499.584342607880956
      * CCSD total energy                     = -499.612942285222005
      * CCSD(T) total energy                  = -499.630194389206849
  @DF-RHF Final Energy:  -499.15496386825174
    Total Energy =                       -499.1549638682516843
  @DF-RHF Final Energy:  -499.12227700556059
    Total Energy =                       -499.1222770055605906
      * MP2 total energy                      = -499.435763990305759
      * CCSD total energy                     = -499.464413309261488
      * CCSD(T) total energy                  = -499.474114660529779
  @DF-RHF Final Energy:  -499.14890529296190
    Total Energy =                       -499.1489052929618992
      * MP2 total energy                      = -499.584396820537904
      * CCSD total energy                     = -499.612949924290945
      * CCSD(T) total energy                  = -499.630214393500580
  @DF-RHF Final Energy:  -499.15495561294608
    Total Energy =                       -499.1549556129460825
  @DF-RHF Final Energy:  -499.12211261426967
    Total Energy =                       -499.1221126142696676
      * MP2 total energy                      = -499.435105181510835
      * CCSD total energy                     = -499.463767361022519
      * CCSD(T) total energy                  = -499.473425853312619
  @DF-RHF Final Energy:  -499.14886493231904
    Total Energy =                       -499.1488649323190430
      * MP2 total energy                      = -499.583841615146184
      * CCSD total energy                     = -499.612434523274544
      * CCSD(T) total energy                  = -499.629675820344232
  @DF-RHF Final Energy:  -998.31003630726832
    Total Energy =                       -998.3100363072683194
	 Opposite-Spin Energy      =      -0.7775524691396409 [Eh]
	 Correlation Energy        =      -1.0022233526163702 [Eh]
	 Total Energy              =    -999.3122596598847167 [Eh]

	 ================> DF-SCS-MP2 Energies <==================
	-----------------------------------------------------------
	 SCS Same-Spin Scale       =       0.3333333333333333 [-]
	 SCS Opposite-Spin Scale   =       1.2000000000000000 [-]
	 SCS Same-Spin Energy      =      -0.0748902944922431 [Eh]
	 SCS Opposite-Spin Energy  =      -0.9330629629675691 [Eh]
	 SCS Correlation Energy    =      -1.0079532574598122 [Eh]
	 SCS Total Energy          =    -999.3179895647281228 [Eh]
	-----------------------------------------------------------

  Multiplicity = 1
  Basis Set: AUG-CC-PVDZ
    Blend: AUG-CC-PVDZ
  Basis Set: (AUG-CC-PVDZ AUX)
    Blend: AUG-CC-PVDZ-JKFIT
  @DF-RHF Final Energy:  -998.24466550844897
    Total Energy =                       -998.2446655084489748
      * MP2 total energy                      = -998.873198930788021
      * CCSD total energy                     = -998.930143948690329
      * CCSD(T) total energy                  = -998.949757408538403
    Molecular point group: c1

    Geometry (in Angstrom), charge = 0, multiplicity = 1:

       Center              X                  Y                   Z               Mass
    ------------   -----------------  -----------------  -----------------  -----------------
         CL          -2.085297459892    -0.000006135021     0.000000000000    34.968852682000
         C           -3.865350459892     0.000008864979     0.000000000000    12.000000000000
         H           -4.208792459892     1.027409864979     0.000000000000     1.007825032230
         H           -4.208805459892    -0.513688135021     0.889753000000     1.007825032230
         H           -4.208805459892    -0.513688135021    -0.889753000000     1.007825032230
         CL           3.196836540108     0.000000864979     0.000000000000    34.968852682000
         C            1.416903540108     0.000002864979     0.000000000000    12.000000000000
         H            1.070729540108     1.026611864979     0.000000000000     1.007825032230
         H            1.070728540108    -0.513301135021     0.889069000000     1.007825032230
         H            1.070728540108    -0.513301135021    -0.889069000000     1.007825032230

  Charge       = 0
  Multiplicity = 1
  Basis Set: AUG-CC-PVTZ
    Blend: AUG-CC-PVTZ
  Basis Set: (AUG-CC-PVTZ AUX)
    Blend: AUG-CC-PVTZ-JKFIT

    Orbital Energies [Eh]
    ---------------------

    Doubly Occupied:

       1A   -104.836108     2A   -104.819038     3A    -11.297752
       4A    -11.280319     5A    -10.560581     6A    -10.543404
       7A     -8.027500     8A     -8.025654     9A     -8.025654
      10A     -8.010312    11A     -8.008469    12A     -8.008469
      13A     -1.138646    14A     -1.121164    15A     -0.924907
      16A     -0.906826    17A     -0.626963    18A     -0.626963
      19A     -0.609703    20A     -0.609703    21A     -0.559120
      22A     -0.536107    23A     -0.446022    24A     -0.446022
      25A     -0.428178    26A     -0.428178

  @DF-RHF Final Energy:  -998.29790592328357

   => Energetics <=

    Nuclear Repulsion Energy =            174.6698659261619468
    One-Electron Energy =               -1724.2320139925607236
    Two-Electron Energy =                 551.2642421431152115
    Total Energy =                       -998.2979059232835652

  Dipole Moment: [D]
     X:    -4.5192      Y:     0.0000      Z:    -0.0000     Total:     4.5192

      * MP2 total energy                      = -999.170772739491895
      * CCSD total energy                     = -999.227503509721828
      * CCSD(T) total energy                  = -999.262317622540877
*** Psi4 exiting successfully. Buy a developer a beer!
