                               Psi4 1.4a2.dev224

  ==> Input File <==

--------------------------------------------------------------------------
#Generated by lconvert.py for cbs job

memory 50 GB

molecule  {
0 1
 Cl      -1.010165    0.000009    0.000000
  C      -2.790218    0.000024    0.000000
  H      -3.133660    1.027425    0.000000
  H      -3.133673   -0.513673    0.889753
  H      -3.133673   -0.513673   -0.889753
--
0 1
 Cl       3.199973    0.000015    0.000000
  C       1.420040    0.000017    0.000000
  H       1.073866    1.026626    0.000000
  H       1.073865   -0.513287    0.889069
  H       1.073865   -0.513287   -0.889069
units angstrom
no_reorient
symmetry c1
}

set {
scf_type DF
mp2_type DF
e_convergence 7
reference rhf
}

energy(cbs, corl_wfn='mp2', corl_basis='aug-cc-pv[tq]z', delta_wfn='ccsd(t)', delta_basis='aug-cc-pv[dt]z', bsse_type='cp')
--------------------------------------------------------------------------

    Molecular point group: c1
  Charge       = 0
  Multiplicity = 1
  Basis Set: AUG-CC-PVQZ
    Blend: AUG-CC-PVQZ
  Basis Set: (AUG-CC-PVQZ AUX)
    Blend: AUG-CC-PVQZ-JKFIT
  @DF-RHF Final Energy:  -499.15494479422733
    Total Energy =                       -499.1549447942273332
  Basis Set: (AUG-CC-PVQZ AUX)
    Blend: AUG-CC-PVQZ-RI
	 Reference Energy          =    -499.1549447942273332 [Eh]
	 Singles Energy            =      -0.0000000000000000 [Eh]
	 Same-Spin Energy          =      -0.1117648222861100 [Eh]
	 Opposite-Spin Energy      =      -0.3881006170769319 [Eh]
	 Correlation Energy        =      -0.4998654393630419 [Eh]
	 Total Energy              =    -499.6548102335903536 [Eh]
	 SCS Total Energy          =    -499.6579204754816601 [Eh]
    Molecular point group: c1
  Basis Set: AUG-CC-PVDZ
    Blend: AUG-CC-PVDZ
  Basis Set: (AUG-CC-PVDZ AUX)
    Blend: AUG-CC-PVDZ-JKFIT
  @DF-RHF Final Energy:  -499.12209702867989
    Total Energy =                       -499.1220970286798888
      * MP2 total energy                      = -499.435105189903766
      * CCSD total energy                     = -499.463769721644098
      * CCSD(T) total energy                  = -499.473429064836125
  @DF-RHF Final Energy:  -499.14885293197176
    Total Energy =                       -499.1488529319717600
      * MP2 total energy                      = -499.583834232496542
      * CCSD total energy                     = -499.612429045692579
      * CCSD(T) total energy                  = -499.629670191884202
  @DF-RHF Final Energy:  -499.15496557922665
    Total Energy =                       -499.1549655792266549
  @DF-RHF Final Energy:  -499.12252993823074
    Total Energy =                       -499.1225299382307412
      * MP2 total energy                      = -499.436541751596906
      * CCSD total energy                     = -499.465173610078409
      * CCSD(T) total energy                  = -499.474920905682893
  @DF-RHF Final Energy:  -499.14891085152169
    Total Energy =                       -499.1489108515216913
      * MP2 total energy                      = -499.585097620356862
      * CCSD total energy                     = -499.613670683142573
      * CCSD(T) total energy                  = -499.630950442815333
  @DF-RHF Final Energy:  -499.15498492864020
    Total Energy =                       -499.1549849286401468
  @DF-RHF Final Energy:  -499.12263050011859
    Total Energy =                       -499.1226305001185892
      * MP2 total energy                      = -499.437920123742799
      * CCSD total energy                     = -499.466605194855447
      * CCSD(T) total energy                  = -499.476459196335725
  @DF-RHF Final Energy:  -499.14899885663135
    Total Energy =                       -499.1489988566313514
      * MP2 total energy                      = -499.585997440588585
      * CCSD total energy                     = -499.614432852268465
      * CCSD(T) total energy                  = -499.631766061006942
  @DF-RHF Final Energy:  -499.15495561280545
    Total Energy =                       -499.1549556128054519
  @DF-RHF Final Energy:  -499.12211261438125
    Total Energy =                       -499.1221126143812512
      * MP2 total energy                      = -499.435105181509073
      * CCSD total energy                     = -499.463767361020928
      * CCSD(T) total energy                  = -499.473425853311028
  @DF-RHF Final Energy:  -499.14886493238743
    Total Energy =                       -499.1488649323874256
      * MP2 total energy                      = -499.583841615146753
      * CCSD total energy                     = -499.612434523275169
      * CCSD(T) total energy                  = -499.629675820344858
  @DF-RHF Final Energy:  -998.27617338378832
    Total Energy =                       -998.2761733837883185
	 Opposite-Spin Energy      =      -0.7851059112400059 [Eh]
	 Correlation Energy        =      -1.0158025067884779 [Eh]
	 Total Energy              =    -999.2919758905768504 [Eh]

	 ================> DF-SCS-MP2 Energies <==================
	-----------------------------------------------------------
	 SCS Same-Spin Scale       =       0.3333333333333333 [-]
	 SCS Opposite-Spin Scale   =       1.2000000000000000 [-]
	 SCS Same-Spin Energy      =      -0.0768988651828240 [Eh]
	 SCS Opposite-Spin Energy  =      -0.9421270934880071 [Eh]
	 SCS Correlation Energy    =      -1.0190259586708310 [Eh]
	 SCS Total Energy          =    -999.2951993424591137 [Eh]
	-----------------------------------------------------------

  Multiplicity = 1
  Basis Set: AUG-CC-PVDZ
    Blend: AUG-CC-PVDZ
  Basis Set: (AUG-CC-PVDZ AUX)
    Blend: AUG-CC-PVDZ-JKFIT
  @DF-RHF Final Energy:  -998.21049482483988
    Total Energy =                       -998.2104948248398841
      * MP2 total energy                      = -998.849691751319369
      * CCSD total energy                     = -998.904260510421864
      * CCSD(T) total energy                  = -998.925008545991886
    Molecular point group: c1

    Geometry (in Angstrom), charge = 0, multiplicity = 1:

       Center              X                  Y                   Z               Mass
    ------------   -----------------  -----------------  -----------------  -----------------
         CL          -1.549299459892    -0.000005635021     0.000000000000    34.968852682000
         C           -3.329352459892     0.000009364979     0.000000000000    12.000000000000
         H           -3.672794459892     1.027410364979     0.000000000000     1.007825032230
         H           -3.672807459892    -0.513687635021     0.889753000000     1.007825032230
         H           -3.672807459892    -0.513687635021    -0.889753000000     1.007825032230
         CL           2.660838540108     0.000000364979     0.000000000000    34.968852682000
         C            0.880905540108     0.000002364979     0.000000000000    12.000000000000
         H            0.534731540108     1.026611364979     0.000000000000     1.007825032230
         H            0.534730540108    -0.513301635021     0.889069000000     1.007825032230
         H            0.534730540108    -0.513301635021    -0.889069000000     1.007825032230

  Charge       = 0
  Multiplicity = 1
  Basis Set: AUG-CC-PVTZ
    Blend: AUG-CC-PVTZ
  Basis Set: (AUG-CC-PVTZ AUX)
    Blend: AUG-CC-PVTZ-JKFIT

    Orbital Energies [Eh]
    ---------------------

    Doubly Occupied:

       1A   -104.834204     2A   -104.811920     3A    -11.293925
       4A    -11.273871     5A    -10.560483     6A    -10.536524
       7A     -8.027304     8A     -8.025029     9A     -8.025029
      10A     -8.003417    11A     -8.001623    12A     -8.001623
      13A     -1.147766    14A     -1.115021    15A     -0.947797
      16A     -0.891029    17A     -0.629031    18A     -0.629031
      19A     -0.610407    20A     -0.610407    21A     -0.586587
      22A     -0.498902    23A     -0.453696    24A     -0.453696
      25A     -0.417448    26A     -0.417448

  @DF-RHF Final Energy:  -998.26405317866545

   => Energetics <=

    Nuclear Repulsion Energy =            196.2775577731467251
    One-Electron Energy =               -1767.4767760285794793
    Two-Electron Energy =                 572.9351650767672481
    Total Energy =                       -998.2640531786654492

  Dipole Moment: [D]
     X:    -4.5096      Y:     0.0000      Z:    -0.0000     Total:     4.5096

      * MP2 total energy                      = -999.150385898139461
      * CCSD total energy                     = -999.204276019489612
      * CCSD(T) total energy                  = -999.240583479425254
*** Psi4 exiting successfully. Buy a developer a beer!
