                               Psi4 1.4a2.dev224

  ==> Input File <==

--------------------------------------------------------------------------
#Generated by lconvert.py for cbs job

memory 50 GB

molecule  {
0 1
 Br      -0.469370    1.468739   -0.609273
  C      -0.738755   -0.344379   -0.002179
  H       0.222198   -0.733383    0.310194
  H      -1.439712   -0.314633    0.822339
  H      -1.141518   -0.912800   -0.830832
--
0 1
  O       1.613139    0.285113   -0.058213
  H       2.507362    0.568282    0.140875
  H       1.180240    1.086154   -0.367881
units angstrom
no_reorient
symmetry c1
}

set {
scf_type DF
mp2_type DF
e_convergence 7
reference rhf
}

energy(cbs, corl_wfn='mp2', corl_basis='aug-cc-pv[tq]z', delta_wfn='ccsd(t)', delta_basis='aug-cc-pv[dt]z', bsse_type='cp')
--------------------------------------------------------------------------

    Molecular point group: c1
  Charge       = 0
  Multiplicity = 1
  Basis Set: AUG-CC-PVQZ
    Blend: AUG-CC-PVQZ
  Basis Set: (AUG-CC-PVQZ AUX)
    Blend: AUG-CC-PVQZ-JKFIT
  @DF-RHF Final Energy:   -76.06571597603298
    Total Energy =                        -76.0657159760329762
  Basis Set: (AUG-CC-PVQZ AUX)
    Blend: AUG-CC-PVQZ-RI
	 Reference Energy          =     -76.0657159760329762 [Eh]
	 Singles Energy            =      -0.0000000000000000 [Eh]
	 Same-Spin Energy          =      -0.0727265283818550 [Eh]
	 Opposite-Spin Energy      =      -0.2442840752498884 [Eh]
	 Correlation Energy        =      -0.3170106036317434 [Eh]
	 Total Energy              =     -76.3827265796647197 [Eh]
	 SCS Total Energy          =     -76.3830990424601310 [Eh]
    Molecular point group: c1
  Basis Set: AUG-CC-PVDZ
    Blend: AUG-CC-PVDZ
  Basis Set: (AUG-CC-PVDZ AUX)
    Blend: AUG-CC-PVDZ-JKFIT
  @DF-RHF Final Energy:   -76.04117621562571
    Total Energy =                        -76.0411762156256970
      * MP2 total energy                      =  -76.263321782084162
      * CCSD total energy                     =  -76.270816042927166
      * CCSD(T) total energy                  =  -76.276074658309426
  @DF-RHF Final Energy:   -76.06033770000262
    Total Energy =                        -76.0603377000026200
      * MP2 total energy                      =  -76.344112077215712
      * CCSD total energy                     =  -76.348695266947288
      * CCSD(T) total energy                  =  -76.357491181332364
  @DF-RHF Final Energy:   -76.06576546300344
    Total Energy =                        -76.0657654630034585
  @DF-RHF Final Energy:   -76.04189110439816
    Total Energy =                        -76.0418911043981609
      * MP2 total energy                      =  -76.265267790172246
      * CCSD total energy                     =  -76.272685955502894
      * CCSD(T) total energy                  =  -76.278111515910467
  @DF-RHF Final Energy:   -76.06045083618447
    Total Energy =                        -76.0604508361844722
      * MP2 total energy                      =  -76.345369447572807
      * CCSD total energy                     =  -76.349906441715660
      * CCSD(T) total energy                  =  -76.358753226918026
  @DF-RHF Final Energy: -2612.09811429587808
    Total Energy =                      -2612.0981142958780765
  @DF-RHF Final Energy: -2611.33229575661380
    Total Energy =                      -2611.3322957566138030
      * MP2 total energy                      = -2612.321540457376159
      * CCSD total energy                     = -2612.346798104483696
      * CCSD(T) total energy                  = -2612.357299486521697
  @DF-RHF Final Energy: -2612.09302205638505
    Total Energy =                      -2612.0930220563855073
      * MP2 total energy                      = -2612.593161542266898
      * CCSD total energy                     = -2612.610689667949828
      * CCSD(T) total energy                  = -2612.629805839349501
  @DF-RHF Final Energy: -2612.09809583600236
    Total Energy =                      -2612.0980958360023578
  @DF-RHF Final Energy: -2611.33110763547165
    Total Energy =                      -2611.3311076354711986
      * MP2 total energy                      = -2612.315239250644026
      * CCSD total energy                     = -2612.340482424745915
      * CCSD(T) total energy                  = -2612.350543666206704
  @DF-RHF Final Energy: -2612.09293863988250
    Total Energy =                      -2612.0929386398829593
      * MP2 total energy                      = -2612.584129166146340
      * CCSD total energy                     = -2612.602285615796973
      * CCSD(T) total energy                  = -2612.621165333020599
  @DF-RHF Final Energy: -2688.09172545831052
    Total Energy =                      -2688.0917254583105205
	 Opposite-Spin Energy      =      -0.7133455245602043 [Eh]
	 Correlation Energy        =      -0.9596889304464750 [Eh]
	 Total Energy              =   -2689.0514143887571663 [Eh]

	 ================> DF-SCS-MP2 Energies <==================
	-----------------------------------------------------------
	 SCS Same-Spin Scale       =       0.3333333333333333 [-]
	 SCS Opposite-Spin Scale   =       1.2000000000000000 [-]
	 SCS Same-Spin Energy      =      -0.0821144686287569 [Eh]
	 SCS Opposite-Spin Energy  =      -0.8560146294722452 [Eh]
	 SCS Correlation Energy    =      -0.9381290981010021 [Eh]
	 SCS Total Energy          =   -2689.0298545564114647 [Eh]
	-----------------------------------------------------------

  Multiplicity = 1
  Basis Set: AUG-CC-PVDZ
    Blend: AUG-CC-PVDZ
  Basis Set: (AUG-CC-PVDZ AUX)
    Blend: AUG-CC-PVDZ-JKFIT
  @DF-RHF Final Energy: -2687.30155923227085
    Total Energy =                      -2687.3015592322708471
      * MP2 total energy                      = -2688.526709073657912
      * CCSD total energy                     = -2688.555417147347725
      * CCSD(T) total energy                  = -2688.572978478177902
    Molecular point group: c1

    Geometry (in Angstrom), charge = 0, multiplicity = 1:

       Center              X                  Y                   Z               Mass
    ------------   -----------------  -----------------  -----------------  -----------------
         BR          -0.301745391387     0.432320876316    -0.171901378922    78.918337600000
         C           -0.571130391387    -1.380797123684     0.435192621078    12.000000000000
         H            0.389822608613    -1.769801123684     0.747565621078     1.007825032230
         H           -1.272087391387    -1.351051123684     1.259710621078     1.007825032230
         H           -0.973893391387    -1.949218123684    -0.393460378922     1.007825032230
         O            1.780763608613    -0.751305123684     0.379158621078    15.994914619570
         H            2.674986608613    -0.468136123684     0.578246621078     1.007825032230
         H            1.347864608613     0.049735876316     0.069490621078     1.007825032230

  Charge       = 0
  Multiplicity = 1
  Basis Set: AUG-CC-PVTZ
    Blend: AUG-CC-PVTZ
  Basis Set: (AUG-CC-PVTZ AUX)
    Blend: AUG-CC-PVTZ-JKFIT

    Orbital Energies [Eh]
    ---------------------

    Doubly Occupied:

       1A   -490.017496     2A    -65.158718     3A    -58.513782
       4A    -58.512583     5A    -58.512562     6A    -20.534701
       7A    -11.268081     8A     -9.832909     9A     -7.443907
      10A     -7.438753    11A     -7.437769    12A     -3.187448
      13A     -3.184483    14A     -3.183933    15A     -3.176782
      16A     -3.176567    17A     -1.353307    18A     -1.071264
      19A     -0.903577    20A     -0.734154    21A     -0.636281
      22A     -0.604401    23A     -0.538891    24A     -0.509570
      25A     -0.493975    26A     -0.407849    27A     -0.394485

  @DF-RHF Final Energy: -2688.08110628089162

   => Energetics <=

    Nuclear Repulsion Energy =            194.4666833997041522
    One-Electron Energy =               -4128.6391193916288103
    Two-Electron Energy =                1246.0913297110328131
    Total Energy =                      -2688.0811062808916176

  Dipole Moment: [D]
     X:     0.3741      Y:    -0.4233      Z:     0.5737     Total:     0.8052

      * MP2 total energy                      = -2688.884126539653153
      * CCSD total energy                     = -2688.901786053797423
      * CCSD(T) total energy                  = -2688.932061469618930
*** Psi4 exiting successfully. Buy a developer a beer!
