                               Psi4 1.4a2.dev224

  ==> Input File <==

--------------------------------------------------------------------------
#Generated by lconvert.py for cbs job

memory 50 GB

molecule  {
0 1
 Br      -0.469370    1.468739   -0.609273
  C      -0.738755   -0.344379   -0.002179
  H       0.222198   -0.733383    0.310194
  H      -1.439712   -0.314633    0.822339
  H      -1.141518   -0.912800   -0.830832
--
0 1
  O       2.571369   -0.082595    0.140094
  H       3.465592    0.200574    0.339182
  H       2.138470    0.718446   -0.169574
units angstrom
no_reorient
symmetry c1
}

set {
scf_type DF
mp2_type DF
e_convergence 7
reference rhf
}

energy(cbs, corl_wfn='mp2', corl_basis='aug-cc-pv[tq]z', delta_wfn='ccsd(t)', delta_basis='aug-cc-pv[dt]z', bsse_type='cp')
--------------------------------------------------------------------------

    Molecular point group: c1
  Charge       = 0
  Multiplicity = 1
  Basis Set: AUG-CC-PVQZ
    Blend: AUG-CC-PVQZ
  Basis Set: (AUG-CC-PVQZ AUX)
    Blend: AUG-CC-PVQZ-JKFIT
  @DF-RHF Final Energy:   -76.06571597601568
    Total Energy =                        -76.0657159760156674
  Basis Set: (AUG-CC-PVQZ AUX)
    Blend: AUG-CC-PVQZ-RI
	 Reference Energy          =     -76.0657159760156816 [Eh]
	 Singles Energy            =      -0.0000000000000000 [Eh]
	 Same-Spin Energy          =      -0.0727265283818355 [Eh]
	 Opposite-Spin Energy      =      -0.2442840752499446 [Eh]
	 Correlation Energy        =      -0.3170106036317801 [Eh]
	 Total Energy              =     -76.3827265796474677 [Eh]
	 SCS Total Energy          =     -76.3830990424428933 [Eh]
    Molecular point group: c1
  Basis Set: AUG-CC-PVDZ
    Blend: AUG-CC-PVDZ
  Basis Set: (AUG-CC-PVDZ AUX)
    Blend: AUG-CC-PVDZ-JKFIT
  @DF-RHF Final Energy:   -76.04117621562185
    Total Energy =                        -76.0411762156218458
      * MP2 total energy                      =  -76.263321782084333
      * CCSD total energy                     =  -76.270816042927322
      * CCSD(T) total energy                  =  -76.276074658309582
  @DF-RHF Final Energy:   -76.06033770000192
    Total Energy =                        -76.0603377000019236
      * MP2 total energy                      =  -76.344112077215740
      * CCSD total energy                     =  -76.348695266947288
      * CCSD(T) total energy                  =  -76.357491181332378
  @DF-RHF Final Energy:   -76.06573912241264
    Total Energy =                        -76.0657391224126229
  @DF-RHF Final Energy:   -76.04148860293114
    Total Energy =                        -76.0414886029311390
      * MP2 total energy                      =  -76.264022536354730
      * CCSD total energy                     =  -76.271486449176678
      * CCSD(T) total energy                  =  -76.276800065227931
  @DF-RHF Final Energy:   -76.06038912026125
    Total Energy =                        -76.0603891202612488
      * MP2 total energy                      =  -76.344561848716026
      * CCSD total energy                     =  -76.349131248075651
      * CCSD(T) total energy                  =  -76.357947916526840
  @DF-RHF Final Energy: -2612.09810367652562
    Total Energy =                      -2612.0981036765256249
  @DF-RHF Final Energy: -2611.33142083092298
    Total Energy =                      -2611.3314208309225251
      * MP2 total energy                      = -2612.317168348922678
      * CCSD total energy                     = -2612.342383240764775
      * CCSD(T) total energy                  = -2612.352568806549698
  @DF-RHF Final Energy: -2612.09297233280495
    Total Energy =                      -2612.0929723328049477
      * MP2 total energy                      = -2612.586433385156852
      * CCSD total energy                     = -2612.604428985177492
      * CCSD(T) total energy                  = -2612.623363939002957
  @DF-RHF Final Energy: -2612.09809583583638
    Total Energy =                      -2612.0980958358359203
  @DF-RHF Final Energy: -2611.33110763569857
    Total Energy =                      -2611.3311076356981175
      * MP2 total energy                      = -2612.315239250642662
      * CCSD total energy                     = -2612.340482424744550
      * CCSD(T) total energy                  = -2612.350543666205340
  @DF-RHF Final Energy: -2612.09293864044594
    Total Energy =                      -2612.0929386404463912
      * MP2 total energy                      = -2612.584129166147250
      * CCSD total energy                     = -2612.602285615797882
      * CCSD(T) total energy                  = -2612.621165333021509
  @DF-RHF Final Energy: -2688.16642127988644
    Total Energy =                      -2688.1664212798864355
	 Opposite-Spin Energy      =      -0.7007465416613943 [Eh]
	 Correlation Energy        =      -0.9369764947257493 [Eh]
	 Total Energy              =   -2689.1033977746124037 [Eh]

	 ================> DF-SCS-MP2 Energies <==================
	-----------------------------------------------------------
	 SCS Same-Spin Scale       =       0.3333333333333333 [-]
	 SCS Opposite-Spin Scale   =       1.2000000000000000 [-]
	 SCS Same-Spin Energy      =      -0.0787433176881183 [Eh]
	 SCS Opposite-Spin Energy  =      -0.8408958499936731 [Eh]
	 SCS Correlation Energy    =      -0.9196391676817914 [Eh]
	 SCS Total Energy          =   -2689.0860604475683431 [Eh]
	-----------------------------------------------------------

  Multiplicity = 1
  Basis Set: AUG-CC-PVDZ
    Blend: AUG-CC-PVDZ
  Basis Set: (AUG-CC-PVDZ AUX)
    Blend: AUG-CC-PVDZ-JKFIT
  @DF-RHF Final Energy: -2687.37550745306407
    Total Energy =                      -2687.3755074530645288
      * MP2 total energy                      = -2688.586048971695618
      * CCSD total energy                     = -2688.618218635433095
      * CCSD(T) total energy                  = -2688.634089537653836
    Molecular point group: c1

    Geometry (in Angstrom), charge = 0, multiplicity = 1:

       Center              X                  Y                   Z               Mass
    ------------   -----------------  -----------------  -----------------  -----------------
         BR          -0.455902576799     0.491476643025    -0.203804417825    78.918337600000
         C           -0.725287576799    -1.321641356975     0.403289582175    12.000000000000
         H            0.235665423201    -1.710645356975     0.715662582175     1.007825032230
         H           -1.426244576799    -1.291895356975     1.227807582175     1.007825032230
         H           -1.128050576799    -1.890062356975    -0.425363417825     1.007825032230
         O            2.584836423201    -1.059857356975     0.545562582175    15.994914619570
         H            3.479059423201    -0.776688356975     0.744650582175     1.007825032230
         H            2.151937423201    -0.258816356975     0.235894582175     1.007825032230

  Charge       = 0
  Multiplicity = 1
  Basis Set: AUG-CC-PVTZ
    Blend: AUG-CC-PVTZ
  Basis Set: (AUG-CC-PVTZ AUX)
    Blend: AUG-CC-PVTZ-JKFIT

    Orbital Energies [Eh]
    ---------------------

    Doubly Occupied:

       1A   -490.016937     2A    -65.156962     3A    -58.512212
       4A    -58.510917     5A    -58.510904     6A    -20.564964
       7A    -11.282459     8A     -9.829887     9A     -7.441284
      10A     -7.434974    11A     -7.434830    12A     -3.184782
      13A     -3.181545    14A     -3.181370    15A     -3.173280
      16A     -3.173270    17A     -1.351430    18A     -1.064600
      19A     -0.896272    20A     -0.716385    21A     -0.610631
      22A     -0.609732    23A     -0.583348    24A     -0.509227
      25A     -0.507370    26A     -0.407217    27A     -0.405025

  @DF-RHF Final Energy: -2688.15593630021931

   => Energetics <=

    Nuclear Repulsion Energy =            166.4083337602298229
    One-Electron Energy =               -4072.6249146331588236
    Two-Electron Energy =                1218.0606445727096343
    Total Energy =                      -2688.1559363002197642

  Dipole Moment: [D]
     X:     0.3712      Y:    -0.3488      Z:     0.5336     Total:     0.7377

      * MP2 total energy                      = -2688.936562669982322
      * CCSD total energy                     = -2688.958535685345396
      * CCSD(T) total energy                  = -2688.986790277765522
*** Psi4 exiting successfully. Buy a developer a beer!
