                               Psi4 1.4a2.dev224

  ==> Input File <==

--------------------------------------------------------------------------
#Generated by lconvert.py for cbs job

memory 50 GB

molecule  {
0 1
 Br       2.177492   -0.607408    0.000145
  C       1.823120    1.288186    0.000114
  H       0.749234    1.426572    0.000143
  H       2.269763    1.710430   -0.891301
  H       2.269817    1.710469    0.891483
--
0 1
 Br      -2.177139    0.607480    0.000161
  C      -1.823021   -1.288160    0.000120
  H      -2.269851   -1.710360   -0.891222
  H      -2.269654   -1.710362    0.891560
  H      -0.749157   -1.426714    0.000003
units angstrom
no_reorient
symmetry c1
}

set {
scf_type DF
mp2_type DF
e_convergence 7
reference rhf
}

energy(cbs, corl_wfn='mp2', corl_basis='aug-cc-pv[tq]z', delta_wfn='ccsd(t)', delta_basis='aug-cc-pv[dt]z', bsse_type='cp')
--------------------------------------------------------------------------

    Molecular point group: c1
  Charge       = 0
  Multiplicity = 1
  Basis Set: AUG-CC-PVQZ
    Blend: AUG-CC-PVQZ
  Basis Set: (AUG-CC-PVQZ AUX)
    Blend: AUG-CC-PVQZ-JKFIT
  @DF-RHF Final Energy: -2612.09808635042009
    Total Energy =                      -2612.0980863504196350
  Basis Set: (AUG-CC-PVQZ AUX)
    Blend: AUG-CC-PVQZ-RI
	 Reference Energy          =   -2612.0980863504200897 [Eh]
	 Singles Energy            =      -0.0000000000000000 [Eh]
	 Same-Spin Energy          =      -0.1612222262286500 [Eh]
	 Opposite-Spin Energy      =      -0.4538164112410814 [Eh]
	 Correlation Energy        =      -0.6150386374697313 [Eh]
	 Total Energy              =   -2612.7131249878898416 [Eh]
	 SCS Total Energy          =   -2612.6964067859858005 [Eh]
    Molecular point group: c1
  Basis Set: AUG-CC-PVDZ
    Blend: AUG-CC-PVDZ
  Basis Set: (AUG-CC-PVDZ AUX)
    Blend: AUG-CC-PVDZ-JKFIT
  @DF-RHF Final Energy: -2611.33108128927688
    Total Energy =                      -2611.3310812892768809
      * MP2 total energy                      = -2612.315233361448463
      * CCSD total energy                     = -2612.340465416974439
      * CCSD(T) total energy                  = -2612.350519301871827
  @DF-RHF Final Energy: -2612.09292493021667
    Total Energy =                      -2612.0929249302166681
      * MP2 total energy                      = -2612.584153666891780
      * CCSD total energy                     = -2612.602298667419291
      * CCSD(T) total energy                  = -2612.621168834045420
  @DF-RHF Final Energy: -2612.09809446713280
    Total Energy =                      -2612.0980944671327961
  @DF-RHF Final Energy: -2611.33139483447576
    Total Energy =                      -2611.3313948344757591
      * MP2 total energy                      = -2612.317192342000908
      * CCSD total energy                     = -2612.342375559661832
      * CCSD(T) total energy                  = -2612.352549566439393
  @DF-RHF Final Energy: -2612.09296228737003
    Total Energy =                      -2612.0929622873700282
      * MP2 total energy                      = -2612.586409024919249
      * CCSD total energy                     = -2612.604395828577708
      * CCSD(T) total energy                  = -2612.623314350048531
  @DF-RHF Final Energy: -2612.09809447072394
    Total Energy =                      -2612.0980944707239360
  @DF-RHF Final Energy: -2611.33139482636261
    Total Energy =                      -2611.3313948263626116
      * MP2 total energy                      = -2612.317191818719039
      * CCSD total energy                     = -2612.342375038879254
      * CCSD(T) total energy                  = -2612.352549020018614
  @DF-RHF Final Energy: -2612.09296229062829
    Total Energy =                      -2612.0929622906282930
      * MP2 total energy                      = -2612.586408391357054
      * CCSD total energy                     = -2612.604395261555510
      * CCSD(T) total energy                  = -2612.623313774633516
  @DF-RHF Final Energy: -2612.09808635418131
    Total Energy =                      -2612.0980863541808503
  @DF-RHF Final Energy: -2611.33108131245535
    Total Energy =                      -2611.3310813124553533
      * MP2 total energy                      = -2612.315233364744017
      * CCSD total energy                     = -2612.340465424495505
      * CCSD(T) total energy                  = -2612.350519313986297
  @DF-RHF Final Energy: -2612.09292493651628
    Total Energy =                      -2612.0929249365162832
      * MP2 total energy                      = -2612.584153660613538
      * CCSD total energy                     = -2612.602298664195587
      * CCSD(T) total energy                  = -2612.621168838102676
  @DF-RHF Final Energy: -5224.19690301973333
    Total Energy =                      -5224.1969030197342363
	 Opposite-Spin Energy      =      -0.9115801034336821 [Eh]
	 Correlation Energy        =      -1.2370355195715081 [Eh]
	 Total Energy              =   -5225.4339385393050179 [Eh]

	 ================> DF-SCS-MP2 Energies <==================
	-----------------------------------------------------------
	 SCS Same-Spin Scale       =       0.3333333333333333 [-]
	 SCS Opposite-Spin Scale   =       1.2000000000000000 [-]
	 SCS Same-Spin Energy      =      -0.1084851387126087 [Eh]
	 SCS Opposite-Spin Energy  =      -1.0938961241204186 [Eh]
	 SCS Correlation Energy    =      -1.2023812628330273 [Eh]
	 SCS Total Energy          =   -5225.3992842825664411 [Eh]
	-----------------------------------------------------------

  Multiplicity = 1
  Basis Set: AUG-CC-PVDZ
    Blend: AUG-CC-PVDZ
  Basis Set: (AUG-CC-PVDZ AUX)
    Blend: AUG-CC-PVDZ-JKFIT
  @DF-RHF Final Energy: -5222.66359851808647
    Total Energy =                      -5222.6635985180873831
      * MP2 total energy                      = -5224.638103006972415
      * CCSD total energy                     = -5224.687794679520266
      * CCSD(T) total energy                  = -5224.708567031720122
    Molecular point group: c1

    Geometry (in Angstrom), charge = 0, multiplicity = 1:

       Center              X                  Y                   Z               Mass
    ------------   -----------------  -----------------  -----------------  -----------------
         BR           2.177336588039    -0.607440091110    -0.000002049658    78.918337600000
         C            1.822964588039     1.288153908890    -0.000033049658    12.000000000000
         H            0.749078588039     1.426539908890    -0.000004049658     1.007825032230
         H            2.269607588039     1.710397908890    -0.891448049658     1.007825032230
         H            2.269661588039     1.710436908890     0.891335950342     1.007825032230
         BR          -2.177294411961     0.607447908890     0.000013950342    78.918337600000
         C           -1.823176411961    -1.288192091110    -0.000027049658    12.000000000000
         H           -2.270006411961    -1.710392091110    -0.891369049658     1.007825032230
         H           -2.269809411961    -1.710394091110     0.891412950342     1.007825032230
         H           -0.749312411961    -1.426746091110    -0.000144049658     1.007825032230

  Charge       = 0
  Multiplicity = 1
  Basis Set: AUG-CC-PVTZ
    Blend: AUG-CC-PVTZ
  Basis Set: (AUG-CC-PVTZ AUX)
    Blend: AUG-CC-PVTZ-JKFIT

    Orbital Energies [Eh]
    ---------------------

    Doubly Occupied:

       1A   -490.015169     2A   -490.015165     3A    -65.155184
       4A    -65.155180     5A    -58.510447     6A    -58.510443
       7A    -58.509124     8A    -58.509120     9A    -58.509120
      10A    -58.509116    11A    -11.283705    12A    -11.283700
      13A     -9.828115    14A     -9.828112    15A     -7.439588
      16A     -7.439585    17A     -7.433093    18A     -7.433090
      19A     -7.433066    20A     -7.433063    21A     -3.183117
      22A     -3.183113    23A     -3.179746    24A     -3.179742
      25A     -3.179715    26A     -3.179712    27A     -3.171400
      28A     -3.171397    29A     -3.171394    30A     -3.171390
      31A     -1.065769    32A     -1.062613    33A     -0.898280
      34A     -0.894304    35A     -0.617356    36A     -0.610883
      37A     -0.610178    38A     -0.603961    39A     -0.509561
      40A     -0.506124    41A     -0.410174    42A     -0.403974
      43A     -0.403345    44A     -0.398343

  @DF-RHF Final Energy: -5224.18663954846488

   => Energetics <=

    Nuclear Repulsion Energy =            414.9943237479467371
    One-Electron Energy =               -8100.3643767775429296
    Two-Electron Energy =                2461.1834134811315380
    Total Energy =                      -5224.1866395484648820

  Dipole Moment: [D]
     X:    -0.0004      Y:    -0.0000      Z:    -0.0001     Total:     0.0004

      * MP2 total energy                      = -5225.177136283061373
      * CCSD total energy                     = -5225.212261568242866
      * CCSD(T) total energy                  = -5225.250663623314722
*** Psi4 exiting successfully. Buy a developer a beer!
