                               Psi4 1.4a2.dev224

  ==> Input File <==

--------------------------------------------------------------------------
#Generated by lconvert.py for cbs job

memory 50 GB

molecule  {
0 1
 Br      -1.019580    0.000008    0.000000
  C      -2.946115    0.000024    0.000000
  H      -3.282258    1.029171   -0.000001
  H      -3.282271   -0.514545    0.891264
  H      -3.282271   -0.514545   -0.891265
--
0 1
 Br       4.506506    0.000017   -0.000004
  C       2.580185    0.000018    0.000001
  H       2.242001    1.028786    0.000002
  H       2.242003   -0.514367    0.890941
  H       2.241999   -0.514366   -0.890938
units angstrom
no_reorient
symmetry c1
}

set {
scf_type DF
mp2_type DF
e_convergence 7
reference rhf
}

energy(cbs, corl_wfn='mp2', corl_basis='aug-cc-pv[tq]z', delta_wfn='ccsd(t)', delta_basis='aug-cc-pv[dt]z', bsse_type='cp')
--------------------------------------------------------------------------

    Molecular point group: c1
  Charge       = 0
  Multiplicity = 1
  Basis Set: AUG-CC-PVQZ
    Blend: AUG-CC-PVQZ
  Basis Set: (AUG-CC-PVQZ AUX)
    Blend: AUG-CC-PVQZ-JKFIT
  @DF-RHF Final Energy: -2612.09806455019452
    Total Energy =                      -2612.0980645501945219
  Basis Set: (AUG-CC-PVQZ AUX)
    Blend: AUG-CC-PVQZ-RI
	 Reference Energy          =   -2612.0980645501945219 [Eh]
	 Singles Energy            =      -0.0000000000000000 [Eh]
	 Same-Spin Energy          =      -0.1612415524838514 [Eh]
	 Opposite-Spin Energy      =      -0.4538346918182151 [Eh]
	 Correlation Energy        =      -0.6150762443020664 [Eh]
	 Total Energy              =   -2612.7131407944966668 [Eh]
	 SCS Total Energy          =   -2612.6964133645378752 [Eh]
    Molecular point group: c1
  Basis Set: AUG-CC-PVDZ
    Blend: AUG-CC-PVDZ
  Basis Set: (AUG-CC-PVDZ AUX)
    Blend: AUG-CC-PVDZ-JKFIT
  @DF-RHF Final Energy: -2611.33104250654060
    Total Energy =                      -2611.3310425065410527
      * MP2 total energy                      = -2612.315221449763158
      * CCSD total energy                     = -2612.340445801076839
      * CCSD(T) total energy                  = -2612.350493987112714
  @DF-RHF Final Energy: -2612.09289914699912
    Total Energy =                      -2612.0928991469995708
      * MP2 total energy                      = -2612.584157859635070
      * CCSD total energy                     = -2612.602295257011519
      * CCSD(T) total energy                  = -2612.621157187785684
  @DF-RHF Final Energy: -2612.09807225729037
    Total Energy =                      -2612.0980722572903687
  @DF-RHF Final Energy: -2611.33120939119590
    Total Energy =                      -2611.3312093911958982
      * MP2 total energy                      = -2612.315941977200509
      * CCSD total energy                     = -2612.341153556747486
      * CCSD(T) total energy                  = -2612.351243796070776
  @DF-RHF Final Energy: -2612.09292203224777
    Total Energy =                      -2612.0929220322477704
      * MP2 total energy                      = -2612.585279205906318
      * CCSD total energy                     = -2612.603369442694657
      * CCSD(T) total energy                  = -2612.622247520054316
  @DF-RHF Final Energy: -2612.09808829817530
    Total Energy =                      -2612.0980882981752984
  @DF-RHF Final Energy: -2611.33136146231982
    Total Energy =                      -2611.3313614623193644
      * MP2 total energy                      = -2612.316947972343769
      * CCSD total energy                     = -2612.342096918760944
      * CCSD(T) total energy                  = -2612.352218772870401
  @DF-RHF Final Energy: -2612.09295277184265
    Total Energy =                      -2612.0929527718426471
      * MP2 total energy                      = -2612.585886400583149
      * CCSD total energy                     = -2612.603881855110103
      * CCSD(T) total energy                  = -2612.622775603518221
  @DF-RHF Final Energy: -2612.09807717168042
    Total Energy =                      -2612.0980771716804156
  @DF-RHF Final Energy: -2611.33105159828892
    Total Energy =                      -2611.3310515982889228
      * MP2 total energy                      = -2612.315210881602070
      * CCSD total energy                     = -2612.340433231187490
      * CCSD(T) total energy                  = -2612.350480347888151
  @DF-RHF Final Energy: -2612.09291206072476
    Total Energy =                      -2612.0929120607252116
      * MP2 total energy                      = -2612.584165880076398
      * CCSD total energy                     = -2612.602301835136586
      * CCSD(T) total energy                  = -2612.621163283210080
  @DF-RHF Final Energy: -5224.19588051851406
    Total Energy =                      -5224.1958805185140591
	 Opposite-Spin Energy      =      -0.9099875214927546 [Eh]
	 Correlation Energy        =      -1.2342267170303405 [Eh]
	 Total Energy              =   -5225.4301072355447104 [Eh]

	 ================> DF-SCS-MP2 Energies <==================
	-----------------------------------------------------------
	 SCS Same-Spin Scale       =       0.3333333333333333 [-]
	 SCS Opposite-Spin Scale   =       1.2000000000000000 [-]
	 SCS Same-Spin Energy      =      -0.1080797318458619 [Eh]
	 SCS Opposite-Spin Energy  =      -1.0919850257913055 [Eh]
	 SCS Correlation Energy    =      -1.2000647576371675 [Eh]
	 SCS Total Energy          =   -5225.3959452761509965 [Eh]
	-----------------------------------------------------------

  Multiplicity = 1
  Basis Set: AUG-CC-PVDZ
    Blend: AUG-CC-PVDZ
  Basis Set: (AUG-CC-PVDZ AUX)
    Blend: AUG-CC-PVDZ-JKFIT
  @DF-RHF Final Energy: -5222.66230233020815
    Total Energy =                      -5222.6623023302081492
      * MP2 total energy                      = -5224.634565898573783
      * CCSD total energy                     = -5224.684485741357094
      * CCSD(T) total energy                  = -5224.704959358517044
    Molecular point group: c1

    Geometry (in Angstrom), charge = 0, multiplicity = 1:

       Center              X                  Y                   Z               Mass
    ------------   -----------------  -----------------  -----------------  -----------------
         BR          -2.444110878392    -0.000005902260     0.000001600192    78.918337600000
         C           -4.370645878392     0.000010097740     0.000001600192    12.000000000000
         H           -4.706788878392     1.029157097740     0.000000600192     1.007825032230
         H           -4.706801878392    -0.514558902260     0.891265600192     1.007825032230
         H           -4.706801878392    -0.514558902260    -0.891263399808     1.007825032230
         BR           3.081975121608     0.000003097740    -0.000002399808    78.918337600000
         C            1.155654121608     0.000004097740     0.000002600192    12.000000000000
         H            0.817470121608     1.028772097740     0.000003600192     1.007825032230
         H            0.817472121608    -0.514380902260     0.890942600192     1.007825032230
         H            0.817468121608    -0.514379902260    -0.890936399808     1.007825032230

  Charge       = 0
  Multiplicity = 1
  Basis Set: AUG-CC-PVTZ
    Blend: AUG-CC-PVTZ
  Basis Set: (AUG-CC-PVTZ AUX)
    Blend: AUG-CC-PVTZ-JKFIT

    Orbital Energies [Eh]
    ---------------------

    Doubly Occupied:

       1A   -490.022821     2A   -490.007757     3A    -65.162851
       4A    -65.147751     5A    -58.518128     6A    -58.516778
       7A    -58.516778     8A    -58.503028     9A    -58.501673
      10A    -58.501673    11A    -11.294658    12A    -11.279675
      13A     -9.835772    14A     -9.820704    15A     -7.447313
      16A     -7.440694    17A     -7.440694    18A     -7.432238
      19A     -7.425607    20A     -7.425607    21A     -3.190847
      22A     -3.187420    23A     -3.187420    24A     -3.178962
      25A     -3.178962    26A     -3.175805    27A     -3.172357
      28A     -3.172357    29A     -3.163868    30A     -3.163868
      31A     -1.073173    32A     -1.058099    33A     -0.906302
      34A     -0.890319    35A     -0.620332    36A     -0.620332
      37A     -0.605618    38A     -0.605618    39A     -0.521344
      40A     -0.499052    41A     -0.411491    42A     -0.411491
      43A     -0.395872    44A     -0.395872

  @DF-RHF Final Energy: -5224.18559202727192

   => Energetics <=

    Nuclear Repulsion Energy =            373.5286094465270139
    One-Electron Energy =               -8017.3704438500872129
    Two-Electron Energy =                2419.6562423762879916
    Total Energy =                      -5224.1855920272719231

  Dipole Moment: [D]
     X:    -4.4946      Y:     0.0000      Z:     0.0000     Total:     4.4946

      * MP2 total energy                      = -5225.173202602708443
      * CCSD total energy                     = -5225.208742372059532
      * CCSD(T) total energy                  = -5225.246865283976149
*** Psi4 exiting successfully. Buy a developer a beer!
