                               Psi4 1.4a2.dev224

  ==> Input File <==

--------------------------------------------------------------------------
#Generated by lconvert.py for cbs job

memory 50 GB

molecule  {
0 1
  F       0.939938    0.557598    1.462149
  F      -0.941880   -0.581475    1.457725
  C      -0.007056   -0.004989    2.253221
  H      -0.481150    0.775975    2.840207
  H       0.457903   -0.775475    2.860993
--
0 1
  F       0.566860   -0.929942   -1.879495
  F      -0.571439    0.953822   -1.838242
  C       0.006538   -0.000084   -1.066226
  H       0.787194    0.458597   -0.467397
  H      -0.760738   -0.476843   -0.464259
units angstrom
no_reorient
symmetry c1
}

set {
scf_type DF
mp2_type DF
e_convergence 7
reference rhf
}

energy(cbs, corl_wfn='mp2', corl_basis='aug-cc-pv[tq]z', delta_wfn='ccsd(t)', delta_basis='aug-cc-pv[dt]z', bsse_type='cp')
--------------------------------------------------------------------------

    Molecular point group: c1
  Charge       = 0
  Multiplicity = 1
  Basis Set: AUG-CC-PVQZ
    Blend: AUG-CC-PVQZ
  Basis Set: (AUG-CC-PVQZ AUX)
    Blend: AUG-CC-PVQZ-JKFIT
  @DF-RHF Final Energy:  -238.01565445796862
    Total Energy =                       -238.0156544579686226
  Basis Set: (AUG-CC-PVQZ AUX)
    Blend: AUG-CC-PVQZ-RI
	 Reference Energy          =    -238.0156544579686226 [Eh]
	 Singles Energy            =      -0.0000000000000000 [Eh]
	 Same-Spin Energy          =      -0.1958054789701091 [Eh]
	 Opposite-Spin Energy      =      -0.6359950666970152 [Eh]
	 Correlation Energy        =      -0.8318005456671242 [Eh]
	 Total Energy              =    -238.8474550036357584 [Eh]
	 SCS Total Energy          =    -238.8441170309950792 [Eh]
    Molecular point group: c1
  Basis Set: AUG-CC-PVDZ
    Blend: AUG-CC-PVDZ
  Basis Set: (AUG-CC-PVDZ AUX)
    Blend: AUG-CC-PVDZ-JKFIT
  @DF-RHF Final Energy:  -237.93152325784490
    Total Energy =                       -237.9315232578449013
      * MP2 total energy                      = -238.492044672676258
      * CCSD total energy                     = -238.507843869090379
      * CCSD(T) total energy                  = -238.522318178663767
  @DF-RHF Final Energy:  -237.99919379249837
    Total Energy =                       -237.9991937924983745
      * MP2 total energy                      = -238.735301630095307
      * CCSD total energy                     = -238.745112649289098
      * CCSD(T) total energy                  = -238.768326592223985
  @DF-RHF Final Energy:  -238.01572673142741
    Total Energy =                       -238.0157267314274065
  @DF-RHF Final Energy:  -237.93207582278490
    Total Energy =                       -237.9320758227848955
      * MP2 total energy                      = -238.493352565981070
      * CCSD total energy                     = -238.509131969392570
      * CCSD(T) total energy                  = -238.523709402100906
  @DF-RHF Final Energy:  -237.99935432028303
    Total Energy =                       -237.9993543202830324
      * MP2 total energy                      = -238.736572873553627
      * CCSD total energy                     = -238.746421649622476
      * CCSD(T) total energy                  = -238.769663656204386
  @DF-RHF Final Energy:  -238.01582782044250
    Total Energy =                       -238.0158278204424960
  @DF-RHF Final Energy:  -237.93229055594870
    Total Energy =                       -237.9322905559486969
      * MP2 total energy                      = -238.493852644142379
      * CCSD total energy                     = -238.509673838213359
      * CCSD(T) total energy                  = -238.524302493645138
  @DF-RHF Final Energy:  -237.99958772070732
    Total Energy =                       -237.9995877207073249
      * MP2 total energy                      = -238.737185909344788
      * CCSD total energy                     = -238.747044666019264
      * CCSD(T) total energy                  = -238.770301943496179
  @DF-RHF Final Energy:  -238.01569473822553
    Total Energy =                       -238.0156947382255339
  @DF-RHF Final Energy:  -237.93156150455621
    Total Energy =                       -237.9315615045562140
      * MP2 total energy                      = -238.492047047581480
      * CCSD total energy                     = -238.507849657646858
      * CCSD(T) total energy                  = -238.522319829370190
  @DF-RHF Final Energy:  -237.99923514301017
    Total Energy =                       -237.9992351430101678
      * MP2 total energy                      = -238.735315523295071
      * CCSD total energy                     = -238.745132558283984
      * CCSD(T) total energy                  = -238.768341517113555
  @DF-RHF Final Energy:  -476.01826920048831
    Total Energy =                       -476.0182692004883052
	 Opposite-Spin Energy      =      -1.2751877530491291 [Eh]
	 Correlation Energy        =      -1.6697689797264268 [Eh]
	 Total Energy              =    -477.6880381802147326 [Eh]

	 ================> DF-SCS-MP2 Energies <==================
	-----------------------------------------------------------
	 SCS Same-Spin Scale       =       0.3333333333333333 [-]
	 SCS Opposite-Spin Scale   =       1.2000000000000000 [-]
	 SCS Same-Spin Energy      =      -0.1315270755590992 [Eh]
	 SCS Opposite-Spin Energy  =      -1.5302253036589548 [Eh]
	 SCS Correlation Energy    =      -1.6617523792180540 [Eh]
	 SCS Total Energy          =    -477.6800215797063629 [Eh]
	-----------------------------------------------------------

  Multiplicity = 1
  Basis Set: AUG-CC-PVDZ
    Blend: AUG-CC-PVDZ
  Basis Set: (AUG-CC-PVDZ AUX)
    Blend: AUG-CC-PVDZ-JKFIT
  @DF-RHF Final Energy:  -475.85125181539576
    Total Energy =                       -475.8512518153957558
      * MP2 total energy                      = -476.977341558001399
      * CCSD total energy                     = -477.008737464731382
      * CCSD(T) total energy                  = -477.038518891834542
    Molecular point group: c1

    Geometry (in Angstrom), charge = 0, multiplicity = 1:

       Center              X                  Y                   Z               Mass
    ------------   -----------------  -----------------  -----------------  -----------------
         F            0.941157616274     0.558354586722     1.424728320772    18.998403162730
         F           -0.940660383726    -0.580718413278     1.420304320772    18.998403162730
         C           -0.005836383726    -0.004232413278     2.215800320772    12.000000000000
         H           -0.479930383726     0.776731586722     2.802786320772     1.007825032230
         H            0.459122616274    -0.774718413278     2.823572320772     1.007825032230
         F            0.568079616274    -0.929185413278    -1.916915679228    18.998403162730
         F           -0.570219383726     0.954578586722    -1.875662679228    18.998403162730
         C            0.007757616274     0.000672586722    -1.103646679228    12.000000000000
         H            0.788413616274     0.459353586722    -0.504817679228     1.007825032230
         H           -0.759518383726    -0.476086413278    -0.501679679228     1.007825032230

  Charge       = 0
  Multiplicity = 1
  Basis Set: AUG-CC-PVTZ
    Blend: AUG-CC-PVTZ
  Basis Set: (AUG-CC-PVTZ AUX)
    Blend: AUG-CC-PVTZ-JKFIT

    Orbital Energies [Eh]
    ---------------------

    Doubly Occupied:

       1A    -26.338606     2A    -26.338557     3A    -26.291222
       4A    -26.291052     5A    -11.428535     6A    -11.372079
       7A     -1.691233     8A     -1.640141     9A     -1.630943
      10A     -1.580646    11A     -1.000141    12A     -0.948657
      13A     -0.805002    14A     -0.799833    15A     -0.794248
      16A     -0.751432    17A     -0.749108    18A     -0.734399
      19A     -0.695234    20A     -0.664030    21A     -0.657556
      22A     -0.646947    23A     -0.612668    24A     -0.586849
      25A     -0.561827    26A     -0.507910

  @DF-RHF Final Energy:  -475.98556779982033

   => Energetics <=

    Nuclear Repulsion Energy =            257.9433435426921051
    One-Electron Energy =               -1175.6201138961673678
    Two-Electron Energy =                 441.6912025536549322
    Total Energy =                       -475.9855677998203305

  Dipole Moment: [D]
     X:     0.0048      Y:    -0.0168      Z:     5.0648     Total:     5.0649

      * MP2 total energy                      = -477.465121356075940
      * CCSD total energy                     = -477.484666776808467
      * CCSD(T) total energy                  = -477.531911019957306
*** Psi4 exiting successfully. Buy a developer a beer!
