                               Psi4 1.4a2.dev224

  ==> Input File <==

--------------------------------------------------------------------------
#Generated by lconvert.py for cbs job

memory 50 GB

molecule  {
0 1
 Cl       0.345459    1.418918    1.445487
 Cl      -0.362081   -1.434279    1.443480
  C      -0.013034   -0.007166    2.429451
  H      -0.885412    0.208441    3.032032
  H       0.853362   -0.222187    3.040792
--
0 1
 Cl      -0.360209   -1.414628   -2.913398
 Cl       0.342672    1.440741   -2.911013
  C       0.016039    0.006297   -1.930115
  H       0.897005   -0.212121   -1.341871
  H      -0.833703    0.215983   -1.294845
units angstrom
no_reorient
symmetry c1
}

set {
scf_type DF
mp2_type DF
e_convergence 7
reference rhf
}

energy(cbs, corl_wfn='mp2', corl_basis='aug-cc-pv[tq]z', delta_wfn='ccsd(t)', delta_basis='aug-cc-pv[dt]z', bsse_type='cp')
--------------------------------------------------------------------------

    Molecular point group: c1
  Charge       = 0
  Multiplicity = 1
  Basis Set: AUG-CC-PVQZ
    Blend: AUG-CC-PVQZ
  Basis Set: (AUG-CC-PVQZ AUX)
    Blend: AUG-CC-PVQZ-JKFIT
  @DF-RHF Final Energy:  -958.08893871400312
    Total Energy =                       -958.0889387140030067
  Basis Set: (AUG-CC-PVQZ AUX)
    Blend: AUG-CC-PVQZ-RI
	 Reference Energy          =    -958.0889387140031204 [Eh]
	 Singles Energy            =      -0.0000000000000000 [Eh]
	 Same-Spin Energy          =      -0.1847307817029662 [Eh]
	 Opposite-Spin Energy      =      -0.5806133760609108 [Eh]
	 Correlation Energy        =      -0.7653441577638770 [Eh]
	 Total Energy              =    -958.8542828717669408 [Eh]
	 SCS Total Energy          =    -958.8472516925105538 [Eh]
    Molecular point group: c1
  Basis Set: AUG-CC-PVDZ
    Blend: AUG-CC-PVDZ
  Basis Set: (AUG-CC-PVDZ AUX)
    Blend: AUG-CC-PVDZ-JKFIT
  @DF-RHF Final Energy:  -958.03941749539604
    Total Energy =                       -958.0394174953960373
      * MP2 total energy                      = -958.500948334210534
      * CCSD total energy                     = -958.533383070548780
      * CCSD(T) total energy                  = -958.549072432608796
  @DF-RHF Final Energy:  -958.07921726568452
    Total Energy =                       -958.0792172656845196
      * MP2 total energy                      = -958.736039015203801
      * CCSD total energy                     = -958.770489695565288
      * CCSD(T) total energy                  = -958.799198154850615
  @DF-RHF Final Energy:  -958.08895696834043
    Total Energy =                       -958.0889569683404261
  @DF-RHF Final Energy:  -958.03959250936964
    Total Energy =                       -958.0395925093696405
      * MP2 total energy                      = -958.501916886820595
      * CCSD total energy                     = -958.534345897042158
      * CCSD(T) total energy                  = -958.550113704945147
  @DF-RHF Final Energy:  -958.07927538892909
    Total Energy =                       -958.0792753889290907
      * MP2 total energy                      = -958.737128535428155
      * CCSD total energy                     = -958.771580678752230
      * CCSD(T) total energy                  = -958.800318659217510
  @DF-RHF Final Energy:  -958.08894334399349
    Total Energy =                       -958.0889433439934919
  @DF-RHF Final Energy:  -958.03978925799629
    Total Energy =                       -958.0397892579962900
      * MP2 total energy                      = -958.502609739153741
      * CCSD total energy                     = -958.535044026238552
      * CCSD(T) total energy                  = -958.550863008864326
  @DF-RHF Final Energy:  -958.07930818450416
    Total Energy =                       -958.0793081845042707
      * MP2 total energy                      = -958.737463307784651
      * CCSD total energy                     = -958.771855365512010
      * CCSD(T) total energy                  = -958.800628464731403
  @DF-RHF Final Energy:  -958.08892463168661
    Total Energy =                       -958.0889246316866092
  @DF-RHF Final Energy:  -958.03945073361513
    Total Energy =                       -958.0394507336150127
      * MP2 total energy                      = -958.501005030980082
      * CCSD total energy                     = -958.533440585943481
      * CCSD(T) total energy                  = -958.549141223023071
  @DF-RHF Final Energy:  -958.07921032420381
    Total Energy =                       -958.0792103242038138
      * MP2 total energy                      = -958.736034048938677
      * CCSD total energy                     = -958.770482392575559
      * CCSD(T) total energy                  = -958.799205562171323
  @DF-RHF Final Energy: -1916.17797207344574
    Total Energy =                      -1916.1779720734457442
	 Opposite-Spin Energy      =      -1.1641197112876487 [Eh]
	 Correlation Energy        =      -1.5359723156553298 [Eh]
	 Total Energy              =   -1917.7139443891010160 [Eh]

	 ================> DF-SCS-MP2 Energies <==================
	-----------------------------------------------------------
	 SCS Same-Spin Scale       =       0.3333333333333333 [-]
	 SCS Opposite-Spin Scale   =       1.2000000000000000 [-]
	 SCS Same-Spin Energy      =      -0.1239508681225604 [Eh]
	 SCS Opposite-Spin Energy  =      -1.3969436535451785 [Eh]
	 SCS Correlation Energy    =      -1.5208945216677388 [Eh]
	 SCS Total Energy          =   -1917.6988665951134863 [Eh]
	-----------------------------------------------------------

  Multiplicity = 1
  Basis Set: AUG-CC-PVDZ
    Blend: AUG-CC-PVDZ
  Basis Set: (AUG-CC-PVDZ AUX)
    Blend: AUG-CC-PVDZ-JKFIT
  @DF-RHF Final Energy: -1916.07963487220377
    Total Energy =                      -1916.0796348722037692
      * MP2 total energy                      = -1917.008371211434223
      * CCSD total energy                     = -1917.072339877544664
      * CCSD(T) total energy                  = -1917.104398406518385
    Molecular point group: c1

    Geometry (in Angstrom), charge = 0, multiplicity = 1:

       Center              X                  Y                   Z               Mass
    ------------   -----------------  -----------------  -----------------  -----------------
         CL           0.352170729895     1.416800182555     2.000521880147    34.968852682000
         CL          -0.355369270105    -1.436396817445     1.998514880147    34.968852682000
         C           -0.006322270105    -0.009283817445     2.984485880147    12.000000000000
         H           -0.878700270105     0.206323182555     3.587066880147     1.007825032230
         H            0.860073729895    -0.224304817445     3.595826880147     1.007825032230
         CL          -0.353497270105    -1.416745817445    -2.358363119853    34.968852682000
         CL           0.349383729895     1.438623182555    -2.355978119853    34.968852682000
         C            0.022750729895     0.004179182555    -1.375080119853    12.000000000000
         H            0.903716729895    -0.214238817445    -0.786836119853     1.007825032230
         H           -0.826991270105     0.213865182555    -0.739810119853     1.007825032230

  Charge       = 0
  Multiplicity = 1
  Basis Set: AUG-CC-PVTZ
    Blend: AUG-CC-PVTZ
  Basis Set: (AUG-CC-PVTZ AUX)
    Blend: AUG-CC-PVTZ-JKFIT

    Orbital Energies [Eh]
    ---------------------

    Doubly Occupied:

       1A   -104.862189     2A   -104.862123     3A   -104.841516
       4A   -104.841462     5A    -11.376404     6A    -11.354034
       7A    -10.586661     8A    -10.586588     9A    -10.565975
      10A    -10.565917    11A     -8.053503    12A     -8.053430
      13A     -8.051549    14A     -8.051476    15A     -8.051448
      16A     -8.051375    17A     -8.032830    18A     -8.032771
      19A     -8.030888    20A     -8.030830    21A     -8.030798
      22A     -8.030740    23A     -1.205870    24A     -1.184567
      25A     -1.109335    26A     -1.088608    27A     -0.908736
      28A     -0.886563    29A     -0.689206    30A     -0.666524
      31A     -0.628969    32A     -0.608908    33A     -0.597914
      34A     -0.576672    35A     -0.486433    36A     -0.484568
      37A     -0.465978    38A     -0.461982    39A     -0.461175
      40A     -0.459031    41A     -0.439752    42A     -0.437226

  @DF-RHF Final Energy: -1916.15866149261774

   => Energetics <=

    Nuclear Repulsion Energy =            470.9429293837273462
    One-Electron Energy =               -3584.6181342307586419
    Two-Electron Energy =                1197.5165433544134430
    Total Energy =                      -1916.1586614926177390

  Dipole Moment: [D]
     X:     0.0359      Y:    -0.0136      Z:     4.0799     Total:     4.0801

      * MP2 total energy                      = -1917.478844565884629
      * CCSD total energy                     = -1917.546635267273132
      * CCSD(T) total energy                  = -1917.604775063837224
*** Psi4 exiting successfully. Buy a developer a beer!
