                               Psi4 1.4a2.dev224

  ==> Input File <==

--------------------------------------------------------------------------
#Generated by lconvert.py for cbs job

memory 50 GB

molecule  {
1 1
  N      -0.635097   -0.241601    0.273162
  H      -0.701594   -1.189162    0.641236
  H      -1.171272   -0.218097   -0.592711
  H       0.365437   -0.049953    0.043146
  C      -1.152753    0.758203    1.257002
  H      -1.060655    1.744724    0.818995
  H      -2.190130    0.536315    1.477240
  H      -0.551778    0.692606    2.155936
--
0 1
  O       1.989162    0.398945   -0.221685
  H       2.334509    0.946046   -0.933424
  H       2.770717    0.044319    0.212559
units angstrom
no_reorient
symmetry c1
}

set {
scf_type DF
mp2_type DF
e_convergence 7
reference rhf
}

energy(cbs, corl_wfn='mp2', corl_basis='aug-cc-pv[tq]z', delta_wfn='ccsd(t)', delta_basis='aug-cc-pv[dt]z', bsse_type='cp')
--------------------------------------------------------------------------

    Molecular point group: c1
  Charge       = 0
  Multiplicity = 1
  Basis Set: AUG-CC-PVQZ
    Blend: AUG-CC-PVQZ
  Basis Set: (AUG-CC-PVQZ AUX)
    Blend: AUG-CC-PVQZ-JKFIT
  @DF-RHF Final Energy:   -76.06563725674171
    Total Energy =                        -76.0656372567417094
  Basis Set: (AUG-CC-PVQZ AUX)
    Blend: AUG-CC-PVQZ-RI
	 Reference Energy          =     -76.0656372567417094 [Eh]
	 Singles Energy            =      -0.0000000000000000 [Eh]
	 Same-Spin Energy          =      -0.0727383417592584 [Eh]
	 Opposite-Spin Energy      =      -0.2443331600517856 [Eh]
	 Correlation Energy        =      -0.3170715018110439 [Eh]
	 Total Energy              =     -76.3827087585527522 [Eh]
	 SCS Total Energy          =     -76.3830831627236080 [Eh]
    Molecular point group: c1
  Basis Set: AUG-CC-PVDZ
    Blend: AUG-CC-PVDZ
  Basis Set: (AUG-CC-PVDZ AUX)
    Blend: AUG-CC-PVDZ-JKFIT
  @DF-RHF Final Energy:   -76.04111070928228
    Total Energy =                        -76.0411107092822931
      * MP2 total energy                      =  -76.263344674994300
      * CCSD total energy                     =  -76.270837509900346
      * CCSD(T) total energy                  =  -76.276103595311056
  @DF-RHF Final Energy:   -76.06026757488156
    Total Energy =                        -76.0602675748815642
      * MP2 total energy                      =  -76.344099711699499
      * CCSD total energy                     =  -76.348674843322115
      * CCSD(T) total energy                  =  -76.357481924684180
  @DF-RHF Final Energy:   -76.06568257338240
    Total Energy =                        -76.0656825733823894
  @DF-RHF Final Energy:   -76.04171034420276
    Total Energy =                        -76.0417103442027553
      * MP2 total energy                      =  -76.265146142524543
      * CCSD total energy                     =  -76.272591547268533
      * CCSD(T) total energy                  =  -76.278022531238364
  @DF-RHF Final Energy:   -76.06036373439709
    Total Energy =                        -76.0603637343970718
      * MP2 total energy                      =  -76.345152576290090
      * CCSD total energy                     =  -76.349693261256803
      * CCSD(T) total energy                  =  -76.358544502933640
  @DF-RHF Final Energy:   -95.62385891186804
    Total Energy =                        -95.6238589118680409
  @DF-RHF Final Energy:   -95.59174081577530
    Total Energy =                        -95.5917408157752959
      * MP2 total energy                      =  -95.932548456443044
      * CCSD total energy                     =  -95.964703041985572
      * CCSD(T) total energy                  =  -95.974203925123689
  @DF-RHF Final Energy:   -95.61778880165814
    Total Energy =                        -95.6177888016581363
      * MP2 total energy                      =  -96.057817922467336
      * CCSD total energy                     =  -96.086028665935430
      * CCSD(T) total energy                  =  -96.100367508385148
  @DF-RHF Final Energy:   -95.62384687948236
    Total Energy =                        -95.6238468794823575
  @DF-RHF Final Energy:   -95.59153088879202
    Total Energy =                        -95.5915308887920219
      * MP2 total energy                      =  -95.931819865669524
      * CCSD total energy                     =  -95.964026351115123
      * CCSD(T) total energy                  =  -95.973484707467804
  @DF-RHF Final Energy:   -95.61774885262476
    Total Energy =                        -95.6177488526247572
      * MP2 total energy                      =  -96.056689983419190
      * CCSD total energy                     =  -96.084877823666361
      * CCSD(T) total energy                  =  -96.099195466081696
  @DF-RHF Final Energy:  -171.71572113963398
    Total Energy =                       -171.7157211396339846
	 Opposite-Spin Energy      =      -0.6353240005096175 [Eh]
	 Correlation Energy        =      -0.8062105230979841 [Eh]
	 Total Energy              =    -172.5219316627319586 [Eh]

	 ================> DF-SCS-MP2 Energies <==================
	-----------------------------------------------------------
	 SCS Same-Spin Scale       =       0.3333333333333333 [-]
	 SCS Opposite-Spin Scale   =       1.2000000000000000 [-]
	 SCS Same-Spin Energy      =      -0.0569621741961222 [Eh]
	 SCS Opposite-Spin Energy  =      -0.7623888006115409 [Eh]
	 SCS Correlation Energy    =      -0.8193509748076632 [Eh]
	 SCS Total Energy          =    -172.5350721144416468 [Eh]
	-----------------------------------------------------------

  Multiplicity = 1
  Basis Set: AUG-CC-PVDZ
    Blend: AUG-CC-PVDZ
  Basis Set: (AUG-CC-PVDZ AUX)
    Blend: AUG-CC-PVDZ-JKFIT
  @DF-RHF Final Energy:  -171.65914622580601
    Total Energy =                       -171.6591462258060119
      * MP2 total energy                      = -172.225677091966190
      * CCSD total energy                     = -172.264445453277148
      * CCSD(T) total energy                  = -172.279799964542747
    Molecular point group: c1

    Geometry (in Angstrom), charge = 1, multiplicity = 1:

       Center              X                  Y                   Z               Mass
    ------------   -----------------  -----------------  -----------------  -----------------
         N           -0.812557192966    -0.533702723774    -0.110696668090    14.003074004430
         H           -0.879054192966    -1.481263723774     0.257377331910     1.007825032230
         H           -1.348732192966    -0.510198723774    -0.976569668090     1.007825032230
         H            0.187976807034    -0.342054723774    -0.340712668090     1.007825032230
         C           -1.330213192966     0.466101276226     0.873143331910    12.000000000000
         H           -1.238115192966     1.452622276226     0.435136331910     1.007825032230
         H           -2.367590192966     0.244213276226     1.093381331910     1.007825032230
         H           -0.729238192966     0.400504276226     1.772077331910     1.007825032230
         O            1.811701807034     0.106843276226    -0.605543668090    15.994914619570
         H            2.157048807034     0.653944276226    -1.317282668090     1.007825032230
         H            2.593256807034    -0.247782723774    -0.171299668090     1.007825032230

  Charge       = 1
  Multiplicity = 1
  Basis Set: AUG-CC-PVTZ
    Blend: AUG-CC-PVTZ
  Basis Set: (AUG-CC-PVTZ AUX)
    Blend: AUG-CC-PVTZ-JKFIT

    Orbital Energies [Eh]
    ---------------------

    Doubly Occupied:

       1A    -20.754196     2A    -15.864353     3A    -11.462549
       4A     -1.543678     5A     -1.486957     6A     -1.146782
       7A     -0.955887     8A     -0.950286     9A     -0.903456
      10A     -0.837054    11A     -0.787996    12A     -0.754932
      13A     -0.743076    14A     -0.701995

  @DF-RHF Final Energy:  -171.70426822091062

   => Energetics <=

    Nuclear Repulsion Energy =             89.0826040645763584
    One-Electron Energy =                -403.7873491618096864
    Two-Electron Energy =                 143.0004768763227219
    Total Energy =                       -171.7042682209106204

  Dipole Moment: [D]
     X:    -0.9652      Y:    -1.2118      Z:    -0.5862     Total:     1.6564

      * MP2 total energy                      = -172.432281429899007
      * CCSD total energy                     = -172.464265295671680
      * CCSD(T) total energy                  = -172.487984400887001
*** Psi4 exiting successfully. Buy a developer a beer!
