                               Psi4 1.4a2.dev224

  ==> Input File <==

--------------------------------------------------------------------------
#Generated by lconvert.py for cbs job

memory 50 GB

molecule  {
1 1
  N      -0.635097   -0.241601    0.273162
  H      -0.701594   -1.189162    0.641236
  H      -1.171272   -0.218097   -0.592711
  H       0.365437   -0.049953    0.043146
  C      -1.152753    0.758203    1.257002
  H      -1.060655    1.744724    0.818995
  H      -2.190130    0.536315    1.477240
  H      -0.551778    0.692606    2.155936
--
0 1
  O       1.502045    0.264276   -0.142236
  H       1.847392    0.811377   -0.853975
  H       2.283599   -0.090350    0.292008
units angstrom
no_reorient
symmetry c1
}

set {
scf_type DF
mp2_type DF
e_convergence 7
reference rhf
}

energy(cbs, corl_wfn='mp2', corl_basis='aug-cc-pv[tq]z', delta_wfn='ccsd(t)', delta_basis='aug-cc-pv[dt]z', bsse_type='cp')
--------------------------------------------------------------------------

    Molecular point group: c1
  Charge       = 0
  Multiplicity = 1
  Basis Set: AUG-CC-PVQZ
    Blend: AUG-CC-PVQZ
  Basis Set: (AUG-CC-PVQZ AUX)
    Blend: AUG-CC-PVQZ-JKFIT
  @DF-RHF Final Energy:   -76.06563729423476
    Total Energy =                        -76.0656372942347616
  Basis Set: (AUG-CC-PVQZ AUX)
    Blend: AUG-CC-PVQZ-RI
	 Reference Energy          =     -76.0656372942347616 [Eh]
	 Singles Energy            =      -0.0000000000000000 [Eh]
	 Same-Spin Energy          =      -0.0727383346891386 [Eh]
	 Opposite-Spin Energy      =      -0.2443331359579490 [Eh]
	 Correlation Energy        =      -0.3170714706470876 [Eh]
	 Total Energy              =     -76.3827087648818548 [Eh]
	 SCS Total Energy          =     -76.3830831689473513 [Eh]
    Molecular point group: c1
  Basis Set: AUG-CC-PVDZ
    Blend: AUG-CC-PVDZ
  Basis Set: (AUG-CC-PVDZ AUX)
    Blend: AUG-CC-PVDZ-JKFIT
  @DF-RHF Final Energy:   -76.04111074061487
    Total Energy =                        -76.0411107406148545
      * MP2 total energy                      =  -76.263344669097691
      * CCSD total energy                     =  -76.270837506396191
      * CCSD(T) total energy                  =  -76.276103588584078
  @DF-RHF Final Energy:   -76.06026761036381
    Total Energy =                        -76.0602676103638089
      * MP2 total energy                      =  -76.344099715953433
      * CCSD total energy                     =  -76.348674851903795
      * CCSD(T) total energy                  =  -76.357481928881427
  @DF-RHF Final Energy:   -76.06570802096915
    Total Energy =                        -76.0657080209691543
  @DF-RHF Final Energy:   -76.04216154519125
    Total Energy =                        -76.0421615451912487
      * MP2 total energy                      =  -76.266937526798799
      * CCSD total energy                     =  -76.274344924448897
      * CCSD(T) total energy                  =  -76.279898386127371
  @DF-RHF Final Energy:   -76.06044209733659
    Total Energy =                        -76.0604420973365905
      * MP2 total energy                      =  -76.346553639129553
      * CCSD total energy                     =  -76.351011657190924
      * CCSD(T) total energy                  =  -76.359906524817859
  @DF-RHF Final Energy:   -95.62386675805095
    Total Energy =                        -95.6238667580509514
  @DF-RHF Final Energy:   -95.59212656685197
    Total Energy =                        -95.5921265668519737
      * MP2 total energy                      =  -95.933534397756446
      * CCSD total energy                     =  -95.965658642144618
      * CCSD(T) total energy                  =  -95.975199620884979
  @DF-RHF Final Energy:   -95.61782174181609
    Total Energy =                        -95.6178217418160870
      * MP2 total energy                      =  -96.058403024023221
      * CCSD total energy                     =  -96.086604845714419
      * CCSD(T) total energy                  =  -96.100957037852240
  @DF-RHF Final Energy:   -95.62384687946137
    Total Energy =                        -95.6238468794613681
  @DF-RHF Final Energy:   -95.59153088884557
    Total Energy =                        -95.5915308888455684
      * MP2 total energy                      =  -95.931819865669880
      * CCSD total energy                     =  -95.964026351115379
      * CCSD(T) total energy                  =  -95.973484707468074
  @DF-RHF Final Energy:   -95.61774885262152
    Total Energy =                        -95.6177488526215171
      * MP2 total energy                      =  -96.056689983418977
      * CCSD total energy                     =  -96.084877823666474
      * CCSD(T) total energy                  =  -96.099195466081881
  @DF-RHF Final Energy:  -171.67958425215315
    Total Energy =                       -171.6795842521531483
	 Opposite-Spin Energy      =      -0.6381794440534505 [Eh]
	 Correlation Energy        =      -0.8128198029669398 [Eh]
	 Total Energy              =    -172.4924040551200903 [Eh]

	 ================> DF-SCS-MP2 Energies <==================
	-----------------------------------------------------------
	 SCS Same-Spin Scale       =       0.3333333333333333 [-]
	 SCS Opposite-Spin Scale   =       1.2000000000000000 [-]
	 SCS Same-Spin Energy      =      -0.0582134529711631 [Eh]
	 SCS Opposite-Spin Energy  =      -0.7658153328641406 [Eh]
	 SCS Correlation Energy    =      -0.8240287858353037 [Eh]
	 SCS Total Energy          =    -172.5036130379884582 [Eh]
	-----------------------------------------------------------

  Multiplicity = 1
  Basis Set: AUG-CC-PVDZ
    Blend: AUG-CC-PVDZ
  Basis Set: (AUG-CC-PVDZ AUX)
    Blend: AUG-CC-PVDZ-JKFIT
  @DF-RHF Final Energy:  -171.62265475985211
    Total Energy =                       -171.6226547598521108
      * MP2 total energy                      = -172.193800994134392
      * CCSD total energy                     = -172.231007828131823
      * CCSD(T) total energy                  = -172.246870683785772
    Molecular point group: c1

    Geometry (in Angstrom), charge = 1, multiplicity = 1:

       Center              X                  Y                   Z               Mass
    ------------   -----------------  -----------------  -----------------  -----------------
         N           -0.637304495365    -0.485252140398    -0.139280457965    14.003074004430
         H           -0.703801495365    -1.432813140398     0.228793542035     1.007825032230
         H           -1.173479495365    -0.461748140398    -1.005153457965     1.007825032230
         H            0.363229504635    -0.293604140398    -0.369296457965     1.007825032230
         C           -1.154960495365     0.514551859602     0.844559542035    12.000000000000
         H           -1.062862495365     1.501072859602     0.406552542035     1.007825032230
         H           -2.192337495365     0.292663859602     1.064797542035     1.007825032230
         H           -0.553985495365     0.448954859602     1.743493542035     1.007825032230
         O            1.499837504635     0.020624859602    -0.554678457965    15.994914619570
         H            1.845184504635     0.567725859602    -1.266417457965     1.007825032230
         H            2.281391504635    -0.334001140398    -0.120434457965     1.007825032230

  Charge       = 1
  Multiplicity = 1
  Basis Set: AUG-CC-PVTZ
    Blend: AUG-CC-PVTZ
  Basis Set: (AUG-CC-PVTZ AUX)
    Blend: AUG-CC-PVTZ-JKFIT

    Orbital Energies [Eh]
    ---------------------

    Doubly Occupied:

       1A    -20.801148     2A    -15.811522     3A    -11.446513
       4A     -1.619459     5A     -1.456389     6A     -1.131171
       7A     -1.013627     8A     -0.962621     9A     -0.918464
      10A     -0.828026    11A     -0.784912    12A     -0.763138
      13A     -0.739287    14A     -0.701264

  @DF-RHF Final Energy:  -171.66811439438652

   => Energetics <=

    Nuclear Repulsion Energy =             95.3832463440853928
    One-Electron Energy =                -416.1476398045734300
    Two-Electron Energy =                 149.0962790661014878
    Total Energy =                       -171.6681143943865209

  Dipole Moment: [D]
     X:     0.9804      Y:    -0.8696      Z:    -1.0575     Total:     1.6839

      * MP2 total energy                      = -172.402628722653219
      * CCSD total energy                     = -172.433217586785048
      * CCSD(T) total energy                  = -172.457482278640299
*** Psi4 exiting successfully. Buy a developer a beer!
