                               Psi4 1.4a2.dev224

  ==> Input File <==

--------------------------------------------------------------------------
#Generated by lconvert.py for cbs job

memory 50 GB

molecule  {
-1 1
  C      -0.839935    0.480707   -0.369605
  C      -2.107278   -0.342002   -0.049332
  O      -2.042862   -1.580050   -0.264138
  O      -3.077172    0.326526    0.397132
  H      -0.506040    0.995115    0.531917
  H      -0.039804   -0.150695   -0.750285
  H      -1.084130    1.248809   -1.103928
--
0 1
  O      -4.751287   -1.978907    0.631155
  H      -4.508283   -1.039078    0.691061
  H      -3.890207   -2.261426    0.283022
units angstrom
no_reorient
symmetry c1
}

set {
scf_type DF
mp2_type DF
e_convergence 7
reference rhf
}

energy(cbs, corl_wfn='mp2', corl_basis='aug-cc-pv[tq]z', delta_wfn='ccsd(t)', delta_basis='aug-cc-pv[dt]z', bsse_type='cp')
--------------------------------------------------------------------------

    Molecular point group: c1
  Charge       = 0
  Multiplicity = 1
  Basis Set: AUG-CC-PVQZ
    Blend: AUG-CC-PVQZ
  Basis Set: (AUG-CC-PVQZ AUX)
    Blend: AUG-CC-PVQZ-JKFIT
  @DF-RHF Final Energy:   -76.06155421575799
    Total Energy =                        -76.0615542157580080
  Basis Set: (AUG-CC-PVQZ AUX)
    Blend: AUG-CC-PVQZ-RI
	 Reference Energy          =     -76.0615542157579938 [Eh]
	 Singles Energy            =      -0.0000000000000000 [Eh]
	 Same-Spin Energy          =      -0.0731976367254025 [Eh]
	 Opposite-Spin Energy      =      -0.2455350884997785 [Eh]
	 Correlation Energy        =      -0.3187327252251810 [Eh]
	 Total Energy              =     -76.3802869409831686 [Eh]
	 SCS Total Energy          =     -76.3805955341995286 [Eh]
    Molecular point group: c1
  Basis Set: AUG-CC-PVDZ
    Blend: AUG-CC-PVDZ
  Basis Set: (AUG-CC-PVDZ AUX)
    Blend: AUG-CC-PVDZ-JKFIT
  @DF-RHF Final Energy:   -76.03727388028885
    Total Energy =                        -76.0372738802888648
      * MP2 total energy                      =  -76.261271334173358
      * CCSD total energy                     =  -76.268542812840167
      * CCSD(T) total energy                  =  -76.273964095232458
  @DF-RHF Final Energy:   -76.05622199530269
    Total Energy =                        -76.0562219953026784
      * MP2 total energy                      =  -76.341783605395946
      * CCSD total energy                     =  -76.346076203899727
      * CCSD(T) total energy                  =  -76.355079647687546
  @DF-RHF Final Energy:   -76.06158564043935
    Total Energy =                        -76.0615856404393469
  @DF-RHF Final Energy:   -76.03755364912359
    Total Energy =                        -76.0375536491235948
      * MP2 total energy                      =  -76.262197294178947
      * CCSD total energy                     =  -76.269423946262947
      * CCSD(T) total energy                  =  -76.274943826832327
  @DF-RHF Final Energy:   -76.05629107868918
    Total Energy =                        -76.0562910786891848
      * MP2 total energy                      =  -76.342698414654151
      * CCSD total energy                     =  -76.346986937054794
      * CCSD(T) total energy                  =  -76.356020392432356
  @DF-RHF Final Energy:  -227.34291307333834
    Total Energy =                       -227.3429130733383374
  @DF-RHF Final Energy:  -227.27462202289524
    Total Energy =                       -227.2746220228952438
      * MP2 total energy                      = -227.976305400158310
      * CCSD total energy                     = -227.991585528583016
      * CCSD(T) total energy                  = -228.019136793313578
  @DF-RHF Final Energy:  -227.32864789620319
    Total Energy =                       -227.3286478962031936
      * MP2 total energy                      = -228.227645795038086
      * CCSD total energy                     = -228.234473426476256
      * CCSD(T) total energy                  = -228.273988054731461
  @DF-RHF Final Energy:  -227.34287014918209
    Total Energy =                       -227.3428701491820902
  @DF-RHF Final Energy:  -227.27432454844865
    Total Energy =                       -227.2743245484486465
      * MP2 total energy                      = -227.974932874476934
      * CCSD total energy                     = -227.990288911007724
      * CCSD(T) total energy                  = -228.017679376261555
  @DF-RHF Final Energy:  -227.32855652814050
    Total Energy =                       -227.3285565281404956
      * MP2 total energy                      = -228.226344974376275
      * CCSD total energy                     = -228.233235870129079
      * CCSD(T) total energy                  = -228.272685574132765
  @DF-RHF Final Energy:  -303.43386541078905
    Total Energy =                       -303.4338654107890534
	 Opposite-Spin Energy      =      -1.0119976217551874 [Eh]
	 Correlation Energy        =      -1.3242909366216105 [Eh]
	 Total Energy              =    -304.7581563474106474 [Eh]

	 ================> DF-SCS-MP2 Energies <==================
	-----------------------------------------------------------
	 SCS Same-Spin Scale       =       0.3333333333333333 [-]
	 SCS Opposite-Spin Scale   =       1.2000000000000000 [-]
	 SCS Same-Spin Energy      =      -0.1040977716221410 [Eh]
	 SCS Opposite-Spin Energy  =      -1.2143971461062248 [Eh]
	 SCS Correlation Energy    =      -1.3184949177283658 [Eh]
	 SCS Total Energy          =    -304.7523603285173976 [Eh]
	-----------------------------------------------------------

  Multiplicity = 1
  Basis Set: AUG-CC-PVDZ
    Blend: AUG-CC-PVDZ
  Basis Set: (AUG-CC-PVDZ AUX)
    Blend: AUG-CC-PVDZ-JKFIT
  @DF-RHF Final Energy:  -303.34156376966354
    Total Energy =                       -303.3415637696635372
      * MP2 total energy                      = -304.269587663135610
      * CCSD total energy                     = -304.291809920875721
      * CCSD(T) total energy                  = -304.325462783307785
    Molecular point group: c1

    Geometry (in Angstrom), charge = -1, multiplicity = 1:

       Center              X                  Y                   Z               Mass
    ------------   -----------------  -----------------  -----------------  -----------------
         C            1.800343036136     1.146146434251    -0.458464678445    12.000000000000
         C            0.533000036136     0.323437434251    -0.138191678445    12.000000000000
         O            0.597416036136    -0.914610565749    -0.352997678445    15.994914619570
         O           -0.436893963864     0.991965434251     0.308272321555    15.994914619570
         H            2.134238036136     1.660554434251     0.443057321555     1.007825032230
         H            2.600474036136     0.514744434251    -0.839144678445     1.007825032230
         H            1.556148036136     1.914248434251    -1.192787678445     1.007825032230
         O           -2.111008963864    -1.313467565749     0.542295321555    15.994914619570
         H           -1.868004963864    -0.373638565749     0.602201321555     1.007825032230
         H           -1.249928963864    -1.595986565749     0.194162321555     1.007825032230

  Charge       = -1
  Multiplicity = 1
  Basis Set: AUG-CC-PVTZ
    Blend: AUG-CC-PVTZ
  Basis Set: (AUG-CC-PVTZ AUX)
    Blend: AUG-CC-PVTZ-JKFIT

    Orbital Energies [Eh]
    ---------------------

    Doubly Occupied:

       1A    -20.352322     2A    -20.317580     3A    -20.315029
       4A    -11.159985     5A    -11.063233     6A     -1.193913
       7A     -1.138339     8A     -1.092127     9A     -0.814679
      10A     -0.541323    11A     -0.487020    12A     -0.447025
      13A     -0.437868    14A     -0.433801    15A     -0.394809
      16A     -0.383785    17A     -0.344633    18A     -0.299159
      19A     -0.235857    20A     -0.221893    21A     -0.220902

  @DF-RHF Final Energy:  -303.41421283923574

   => Energetics <=

    Nuclear Repulsion Energy =            172.3255518968472018
    One-Electron Energy =                -767.6889706112142449
    Two-Electron Energy =                 291.9492058751313266
    Total Energy =                       -303.4142128392357449

  Dipole Moment: [D]
     X:     3.2048      Y:     1.9983      Z:    -0.8226     Total:     3.8653

      * MP2 total energy                      = -304.602721892832449
      * CCSD total energy                     = -304.613604122401625
      * CCSD(T) total energy                  = -304.662914228719558
*** Psi4 exiting successfully. Buy a developer a beer!
