                               Psi4 1.4a2.dev224

  ==> Input File <==

--------------------------------------------------------------------------
#Generated by lconvert.py for cbs job

memory 50 GB

molecule  {
-1 1
  C      -0.839935    0.480707   -0.369605
  C      -2.107278   -0.342002   -0.049332
  O      -2.042862   -1.580050   -0.264138
  O      -3.077172    0.326526    0.397132
  H      -0.506040    0.995115    0.531917
  H      -0.039804   -0.150695   -0.750285
  H      -1.084130    1.248809   -1.103928
--
0 1
  O      -4.321954   -1.569226    0.542976
  H      -4.078950   -0.629397    0.602882
  H      -3.460874   -1.851745    0.194843
units angstrom
no_reorient
symmetry c1
}

set {
scf_type DF
mp2_type DF
e_convergence 7
reference rhf
}

energy(cbs, corl_wfn='mp2', corl_basis='aug-cc-pv[tq]z', delta_wfn='ccsd(t)', delta_basis='aug-cc-pv[dt]z', bsse_type='cp')
--------------------------------------------------------------------------

    Molecular point group: c1
  Charge       = 0
  Multiplicity = 1
  Basis Set: AUG-CC-PVQZ
    Blend: AUG-CC-PVQZ
  Basis Set: (AUG-CC-PVQZ AUX)
    Blend: AUG-CC-PVQZ-JKFIT
  @DF-RHF Final Energy:   -76.06155421577833
    Total Energy =                        -76.0615542157783295
  Basis Set: (AUG-CC-PVQZ AUX)
    Blend: AUG-CC-PVQZ-RI
	 Reference Energy          =     -76.0615542157783295 [Eh]
	 Singles Energy            =      -0.0000000000000000 [Eh]
	 Same-Spin Energy          =      -0.0731976367254764 [Eh]
	 Opposite-Spin Energy      =      -0.2455350884998655 [Eh]
	 Correlation Energy        =      -0.3187327252253419 [Eh]
	 Total Energy              =     -76.3802869410036749 [Eh]
	 SCS Total Energy          =     -76.3805955342199923 [Eh]
    Molecular point group: c1
  Basis Set: AUG-CC-PVDZ
    Blend: AUG-CC-PVDZ
  Basis Set: (AUG-CC-PVDZ AUX)
    Blend: AUG-CC-PVDZ-JKFIT
  @DF-RHF Final Energy:   -76.03727388029253
    Total Energy =                        -76.0372738802925312
      * MP2 total energy                      =  -76.261271334173372
      * CCSD total energy                     =  -76.268542812840181
      * CCSD(T) total energy                  =  -76.273964095232472
  @DF-RHF Final Energy:   -76.05622199530856
    Total Energy =                        -76.0562219953085759
      * MP2 total energy                      =  -76.341783605395733
      * CCSD total energy                     =  -76.346076203899500
      * CCSD(T) total energy                  =  -76.355079647687333
  @DF-RHF Final Energy:   -76.06160464796169
    Total Energy =                        -76.0616046479616728
  @DF-RHF Final Energy:   -76.03788007102058
    Total Energy =                        -76.0378800710205809
      * MP2 total energy                      =  -76.263466842034077
      * CCSD total energy                     =  -76.270611100494179
      * CCSD(T) total energy                  =  -76.276231986685360
  @DF-RHF Final Energy:   -76.05636258683938
    Total Energy =                        -76.0563625868393842
      * MP2 total energy                      =  -76.343660916077539
      * CCSD total energy                     =  -76.347931623496592
      * CCSD(T) total energy                  =  -76.356993205678876
  @DF-RHF Final Energy:  -227.34294538275185
    Total Energy =                       -227.3429453827518500
  @DF-RHF Final Energy:  -227.27488563150780
    Total Energy =                       -227.2748856315078001
      * MP2 total energy                      = -227.978833929305807
      * CCSD total energy                     = -227.993966199361211
      * CCSD(T) total energy                  = -228.021752005469352
  @DF-RHF Final Energy:  -227.32880419194879
    Total Energy =                       -227.3288041919487910
      * MP2 total energy                      = -228.229921316945223
      * CCSD total energy                     = -228.236629576405505
      * CCSD(T) total energy                  = -228.276225319011957
  @DF-RHF Final Energy:  -227.34287014962237
    Total Energy =                       -227.3428701496223709
  @DF-RHF Final Energy:  -227.27432454852578
    Total Energy =                       -227.2743245485257830
      * MP2 total energy                      = -227.974932874478270
      * CCSD total energy                     = -227.990288911008918
      * CCSD(T) total energy                  = -228.017679376262976
  @DF-RHF Final Energy:  -227.32855652812481
    Total Energy =                       -227.3285565281248068
      * MP2 total energy                      = -228.226344974375820
      * CCSD total energy                     = -228.233235870128794
      * CCSD(T) total energy                  = -228.272685574132680
  @DF-RHF Final Energy:  -303.39534561589880
    Total Energy =                       -303.3953456158988047
	 Opposite-Spin Energy      =      -1.0166148575684324 [Eh]
	 Correlation Energy        =      -1.3343549686777587 [Eh]
	 Total Energy              =    -304.7297005845765625 [Eh]

	 ================> DF-SCS-MP2 Energies <==================
	-----------------------------------------------------------
	 SCS Same-Spin Scale       =       0.3333333333333333 [-]
	 SCS Opposite-Spin Scale   =       1.2000000000000000 [-]
	 SCS Same-Spin Energy      =      -0.1059133703697755 [Eh]
	 SCS Opposite-Spin Energy  =      -1.2199378290821188 [Eh]
	 SCS Correlation Energy    =      -1.3258511994518942 [Eh]
	 SCS Total Energy          =    -304.7211968153507087 [Eh]
	-----------------------------------------------------------

  Multiplicity = 1
  Basis Set: AUG-CC-PVDZ
    Blend: AUG-CC-PVDZ
  Basis Set: (AUG-CC-PVDZ AUX)
    Blend: AUG-CC-PVDZ-JKFIT
  @DF-RHF Final Energy:  -303.30258322807339
    Total Energy =                       -303.3025832280733880
      * MP2 total energy                      = -304.238397703061253
      * CCSD total energy                     = -304.258562214607423
      * CCSD(T) total energy                  = -304.293212085277332
    Molecular point group: c1

    Geometry (in Angstrom), charge = -1, multiplicity = 1:

       Center              X                  Y                   Z               Mass
    ------------   -----------------  -----------------  -----------------  -----------------
         C            1.699951691662     1.050350335663    -0.437845698855    12.000000000000
         C            0.432608691662     0.227641335663    -0.117572698855    12.000000000000
         O            0.497024691662    -1.010406664337    -0.332378698855    15.994914619570
         O           -0.537285308338     0.896169335663     0.328891301145    15.994914619570
         H            2.033846691662     1.564758335663     0.463676301145     1.007825032230
         H            2.500082691662     0.418948335663    -0.818525698855     1.007825032230
         H            1.455756691662     1.818452335663    -1.172168698855     1.007825032230
         O           -1.782067308338    -0.999582664337     0.474735301145    15.994914619570
         H           -1.539063308338    -0.059753664337     0.534641301145     1.007825032230
         H           -0.920987308338    -1.282101664337     0.126602301145     1.007825032230

  Charge       = -1
  Multiplicity = 1
  Basis Set: AUG-CC-PVTZ
    Blend: AUG-CC-PVTZ
  Basis Set: (AUG-CC-PVTZ AUX)
    Blend: AUG-CC-PVTZ-JKFIT

    Orbital Energies [Eh]
    ---------------------

    Doubly Occupied:

       1A    -20.333046     2A    -20.328206     3A    -20.268458
       4A    -11.177017     5A    -11.073722     6A     -1.227828
       7A     -1.119984     8A     -1.074625     9A     -0.826718
      10A     -0.565216    11A     -0.508845    12A     -0.473739
      13A     -0.447523    14A     -0.414455    15A     -0.383006
      16A     -0.363486    17A     -0.351469    18A     -0.245104
      19A     -0.244074    20A     -0.229537    21A     -0.209290

  @DF-RHF Final Energy:  -303.37581587004581

   => Energetics <=

    Nuclear Repulsion Energy =            183.6400983245636098
    One-Electron Energy =                -790.3011387085875867
    Two-Electron Energy =                 303.2852245139781644
    Total Energy =                       -303.3758158700458125

  Dipole Moment: [D]
     X:     4.5615      Y:     2.9318      Z:    -1.1573     Total:     5.5445

      * MP2 total energy                      = -304.574773743451829
      * CCSD total energy                     = -304.583747723929264
      * CCSD(T) total energy                  = -304.634113673219872
*** Psi4 exiting successfully. Buy a developer a beer!
