                               Psi4 1.4a2.dev224

  ==> Input File <==

--------------------------------------------------------------------------
#Generated by lconvert.py for cbs job

memory 50 GB

molecule  {
0 1
  C      -0.862225   -0.933550   -0.246023
  C      -3.193911    0.461076   -0.019761
  S      -2.332736   -0.567707   -1.229453
  H      -1.136269   -1.462459    0.664019
  H      -0.216531   -1.567905   -0.847797
  H      -0.331129   -0.015786   -0.003648
  H      -3.400557   -0.108030    0.883809
  H      -2.602364    1.342711    0.216653
  H      -4.133316    0.774676   -0.467680
--
0 1
  O      -3.147291   -2.229836    0.618269
  H      -2.972785   -1.800332   -0.229761
  H      -3.640972   -3.016564    0.380416
units angstrom
no_reorient
symmetry c1
}

set {
scf_type DF
mp2_type DF
e_convergence 7
reference rhf
}

energy(cbs, corl_wfn='mp2', corl_basis='aug-cc-pv[tq]z', delta_wfn='ccsd(t)', delta_basis='aug-cc-pv[dt]z', bsse_type='cp')
--------------------------------------------------------------------------

    Molecular point group: c1
  Charge       = 0
  Multiplicity = 1
  Basis Set: AUG-CC-PVQZ
    Blend: AUG-CC-PVQZ
  Basis Set: (AUG-CC-PVQZ AUX)
    Blend: AUG-CC-PVQZ-JKFIT
  @DF-RHF Final Energy:   -76.06549112705176
    Total Energy =                        -76.0654911270517573
  Basis Set: (AUG-CC-PVQZ AUX)
    Blend: AUG-CC-PVQZ-RI
	 Reference Energy          =     -76.0654911270517573 [Eh]
	 Singles Energy            =      -0.0000000000000000 [Eh]
	 Same-Spin Energy          =      -0.0727638818492400 [Eh]
	 Opposite-Spin Energy      =      -0.2444132793722881 [Eh]
	 Correlation Energy        =      -0.3171771612215281 [Eh]
	 Total Energy              =     -76.3826682882732797 [Eh]
	 SCS Total Energy          =     -76.3830416895815887 [Eh]
    Molecular point group: c1
  Basis Set: AUG-CC-PVDZ
    Blend: AUG-CC-PVDZ
  Basis Set: (AUG-CC-PVDZ AUX)
    Blend: AUG-CC-PVDZ-JKFIT
  @DF-RHF Final Energy:   -76.04098360183491
    Total Energy =                        -76.0409836018349097
      * MP2 total energy                      =  -76.263330915609941
      * CCSD total energy                     =  -76.270813172285187
      * CCSD(T) total energy                  =  -76.276089260727687
  @DF-RHF Final Energy:   -76.06012433379945
    Total Energy =                        -76.0601243337994646
      * MP2 total energy                      =  -76.344065031652576
      * CCSD total energy                     =  -76.348625381503837
      * CCSD(T) total energy                  =  -76.357445229412377
  @DF-RHF Final Energy:   -76.06555558603016
    Total Energy =                        -76.0655555860301718
  @DF-RHF Final Energy:   -76.04173143764626
    Total Energy =                        -76.0417314376462627
      * MP2 total energy                      =  -76.265504398922786
      * CCSD total energy                     =  -76.272892537651671
      * CCSD(T) total energy                  =  -76.278372934488672
  @DF-RHF Final Energy:   -76.06029001967096
    Total Energy =                        -76.0602900196709584
      * MP2 total energy                      =  -76.345729737945746
      * CCSD total energy                     =  -76.350262213248214
      * CCSD(T) total energy                  =  -76.359139786251845
  @DF-RHF Final Energy:  -476.81245890544432
    Total Energy =                       -476.8124589054443163
  @DF-RHF Final Energy:  -476.76554497752477
    Total Energy =                       -476.7655449775247689
      * MP2 total energy                      = -477.235179964405233
      * CCSD total energy                     = -477.280309817773229
      * CCSD(T) total energy                  = -477.297479906940339
  @DF-RHF Final Energy:  -476.80350882646036
    Total Energy =                       -476.8035088264603587
      * MP2 total energy                      = -477.434305950468570
      * CCSD total energy                     = -477.475157629777868
      * CCSD(T) total energy                  = -477.501353248991677
  @DF-RHF Final Energy:  -476.81242207676826
    Total Energy =                       -476.8124220767682573
  @DF-RHF Final Energy:  -476.76436184338854
    Total Energy =                       -476.7643618433885422
      * MP2 total energy                      = -477.230206065880850
      * CCSD total energy                     = -477.275452468955507
      * CCSD(T) total energy                  = -477.292290489923232
  @DF-RHF Final Energy:  -476.80340069014136
    Total Energy =                       -476.8034006901413591
      * MP2 total energy                      = -477.429573087740209
      * CCSD total energy                     = -477.470717626269050
      * CCSD(T) total energy                  = -477.496756874200969
  @DF-RHF Final Energy:  -552.84221153500812
    Total Energy =                       -552.8422115350081185
	 Opposite-Spin Energy      =      -0.8059962973536584 [Eh]
	 Correlation Energy        =      -1.0375580559487334 [Eh]
	 Total Energy              =    -553.8797695909568120 [Eh]

	 ================> DF-SCS-MP2 Energies <==================
	-----------------------------------------------------------
	 SCS Same-Spin Scale       =       0.3333333333333333 [-]
	 SCS Opposite-Spin Scale   =       1.2000000000000000 [-]
	 SCS Same-Spin Energy      =      -0.0771872528650250 [Eh]
	 SCS Opposite-Spin Energy  =      -0.9671955568243901 [Eh]
	 SCS Correlation Energy    =      -1.0443828096894150 [Eh]
	 SCS Total Energy          =    -553.8865943446975280 [Eh]
	-----------------------------------------------------------

  Multiplicity = 1
  Basis Set: AUG-CC-PVDZ
    Blend: AUG-CC-PVDZ
  Basis Set: (AUG-CC-PVDZ AUX)
    Blend: AUG-CC-PVDZ-JKFIT
  @DF-RHF Final Energy:  -552.77129177836366
    Total Energy =                       -552.7712917783636613
      * MP2 total energy                      = -553.477497522040039
      * CCSD total energy                     = -553.525998812827424
      * CCSD(T) total energy                  = -553.550419015036709
    Molecular point group: c1

    Geometry (in Angstrom), charge = 0, multiplicity = 1:

       Center              X                  Y                   Z               Mass
    ------------   -----------------  -----------------  -----------------  -----------------
         C            1.539072604716    -0.116527314057     0.153925740565    12.000000000000
         C           -0.792613395284     1.278098685943     0.380187740565    12.000000000000
         S            0.068561604716     0.249315685943    -0.829504259435    31.972071174400
         H            1.265028604716    -0.645436314057     1.063967740565     1.007825032230
         H            2.184766604716    -0.750882314057    -0.447848259435     1.007825032230
         H            2.070168604716     0.801236685943     0.396300740565     1.007825032230
         H           -0.999259395284     0.708992685943     1.283757740565     1.007825032230
         H           -0.201066395284     2.159733685943     0.616601740565     1.007825032230
         H           -1.732018395284     1.591698685943    -0.067731259435     1.007825032230
         O           -0.745993395284    -1.412813314057     1.018217740565    15.994914619570
         H           -0.571487395284    -0.983309314057     0.170187740565     1.007825032230
         H           -1.239674395284    -2.199541314057     0.780364740565     1.007825032230

  Charge       = 0
  Multiplicity = 1
  Basis Set: AUG-CC-PVTZ
    Blend: AUG-CC-PVTZ
  Basis Set: (AUG-CC-PVTZ AUX)
    Blend: AUG-CC-PVTZ-JKFIT

    Orbital Energies [Eh]
    ---------------------

    Doubly Occupied:

       1A    -91.954917     2A    -20.521670     3A    -11.247632
       4A    -11.247621     5A     -8.957565     6A     -6.638636
       7A     -6.637777     8A     -6.637258     9A     -1.329613
      10A     -1.076340    11A     -0.954233    12A     -0.823377
      13A     -0.715267    14A     -0.609584    15A     -0.584542
      16A     -0.579444    17A     -0.575944    18A     -0.562247
      19A     -0.500984    20A     -0.468707    21A     -0.447276
      22A     -0.350081

  @DF-RHF Final Energy:  -552.82786993253694

   => Energetics <=

    Nuclear Repulsion Energy =            187.6567581652102206
    One-Electron Energy =               -1134.1278202314178998
    Two-Electron Energy =                 393.6431921336707092
    Total Energy =                       -552.8278699325369416

  Dipole Moment: [D]
     X:     0.1986      Y:     0.3690      Z:    -0.2247     Total:     0.4755

      * MP2 total energy                      = -553.760851333620394
      * CCSD total energy                     = -553.801977081954533
      * CCSD(T) total energy                  = -553.839434663978182
*** Psi4 exiting successfully. Buy a developer a beer!
