                               Psi4 1.4a2.dev224

  ==> Input File <==

--------------------------------------------------------------------------
#Generated by lconvert.py for cbs job

memory 50 GB

molecule  {
0 1
  C      -0.862225   -0.933550   -0.246023
  C      -3.193911    0.461076   -0.019761
  S      -2.332736   -0.567707   -1.229453
  H      -1.136269   -1.462459    0.664019
  H      -0.216531   -1.567905   -0.847797
  H      -0.331129   -0.015786   -0.003648
  H      -3.400557   -0.108030    0.883809
  H      -2.602364    1.342711    0.216653
  H      -4.133316    0.774676   -0.467680
--
0 1
  O      -3.511263   -2.871934    0.824254
  H      -3.336757   -2.442430   -0.023776
  H      -4.004944   -3.658662    0.586401
units angstrom
no_reorient
symmetry c1
}

set {
scf_type DF
mp2_type DF
e_convergence 7
reference rhf
}

energy(cbs, corl_wfn='mp2', corl_basis='aug-cc-pv[tq]z', delta_wfn='ccsd(t)', delta_basis='aug-cc-pv[dt]z', bsse_type='cp')
--------------------------------------------------------------------------

    Molecular point group: c1
  Charge       = 0
  Multiplicity = 1
  Basis Set: AUG-CC-PVQZ
    Blend: AUG-CC-PVQZ
  Basis Set: (AUG-CC-PVQZ AUX)
    Blend: AUG-CC-PVQZ-JKFIT
  @DF-RHF Final Energy:   -76.06549112705576
    Total Energy =                        -76.0654911270557648
  Basis Set: (AUG-CC-PVQZ AUX)
    Blend: AUG-CC-PVQZ-RI
	 Reference Energy          =     -76.0654911270557648 [Eh]
	 Singles Energy            =      -0.0000000000000000 [Eh]
	 Same-Spin Energy          =      -0.0727638818491824 [Eh]
	 Opposite-Spin Energy      =      -0.2444132793722493 [Eh]
	 Correlation Energy        =      -0.3171771612214317 [Eh]
	 Total Energy              =     -76.3826682882772019 [Eh]
	 SCS Total Energy          =     -76.3830416895855251 [Eh]
    Molecular point group: c1
  Basis Set: AUG-CC-PVDZ
    Blend: AUG-CC-PVDZ
  Basis Set: (AUG-CC-PVDZ AUX)
    Blend: AUG-CC-PVDZ-JKFIT
  @DF-RHF Final Energy:   -76.04098360183394
    Total Energy =                        -76.0409836018339433
      * MP2 total energy                      =  -76.263330915609558
      * CCSD total energy                     =  -76.270813172284818
      * CCSD(T) total energy                  =  -76.276089260727318
  @DF-RHF Final Energy:   -76.06012433379472
    Total Energy =                        -76.0601243337947039
      * MP2 total energy                      =  -76.344065031652676
      * CCSD total energy                     =  -76.348625381503879
      * CCSD(T) total energy                  =  -76.357445229412434
  @DF-RHF Final Energy:   -76.06552332702014
    Total Energy =                        -76.0655233270201450
  @DF-RHF Final Energy:   -76.04134203797652
    Total Energy =                        -76.0413420379765341
      * MP2 total energy                      =  -76.264314851447267
      * CCSD total energy                     =  -76.271751253034907
      * CCSD(T) total energy                  =  -76.277118684491640
  @DF-RHF Final Energy:   -76.06019373937346
    Total Energy =                        -76.0601937393734602
      * MP2 total energy                      =  -76.344769238152082
      * CCSD total energy                     =  -76.349316447960433
      * CCSD(T) total energy                  =  -76.358164689527243
  @DF-RHF Final Energy:  -476.81243973680353
    Total Energy =                       -476.8124397368035261
  @DF-RHF Final Energy:  -476.76495750512845
    Total Energy =                       -476.7649575051284501
      * MP2 total energy                      = -477.232603626442199
      * CCSD total energy                     = -477.277784999921323
      * CCSD(T) total energy                  = -477.294764729225562
  @DF-RHF Final Energy:  -476.80346014166844
    Total Energy =                       -476.8034601416684382
      * MP2 total energy                      = -477.431338211701188
      * CCSD total energy                     = -477.472389459831675
      * CCSD(T) total energy                  = -477.498484575461760
  @DF-RHF Final Energy:  -476.81242207698028
    Total Energy =                       -476.8124220769802832
  @DF-RHF Final Energy:  -476.76436184342396
    Total Energy =                       -476.7643618434239556
      * MP2 total energy                      = -477.230206065879145
      * CCSD total energy                     = -477.275452468953461
      * CCSD(T) total energy                  = -477.292290489921072
  @DF-RHF Final Energy:  -476.80340069009418
    Total Energy =                       -476.8034006900941790
      * MP2 total energy                      = -477.429573087739641
      * CCSD total energy                     = -477.470717626268879
      * CCSD(T) total energy                  = -477.496756874200798
  @DF-RHF Final Energy:  -552.88140831787587
    Total Energy =                       -552.8814083178758665
	 Opposite-Spin Energy      =      -0.7983323870901582 [Eh]
	 Correlation Energy        =      -1.0229798388109033 [Eh]
	 Total Energy              =    -553.9043881566867640 [Eh]

	 ================> DF-SCS-MP2 Energies <==================
	-----------------------------------------------------------
	 SCS Same-Spin Scale       =       0.3333333333333333 [-]
	 SCS Opposite-Spin Scale   =       1.2000000000000000 [-]
	 SCS Same-Spin Energy      =      -0.0748824839069151 [Eh]
	 SCS Opposite-Spin Energy  =      -0.9579988645081898 [Eh]
	 SCS Correlation Energy    =      -1.0328813484151049 [Eh]
	 SCS Total Energy          =    -553.9142896662909834 [Eh]
	-----------------------------------------------------------

  Multiplicity = 1
  Basis Set: AUG-CC-PVDZ
    Blend: AUG-CC-PVDZ
  Basis Set: (AUG-CC-PVDZ AUX)
    Blend: AUG-CC-PVDZ-JKFIT
  @DF-RHF Final Energy:  -552.80980552614847
    Total Energy =                       -552.8098055261484660
      * MP2 total energy                      = -553.504423410643540
      * CCSD total energy                     = -553.556005163951681
      * CCSD(T) total energy                  = -553.578999969185361
    Molecular point group: c1

    Geometry (in Angstrom), charge = 0, multiplicity = 1:

       Center              X                  Y                   Z               Mass
    ------------   -----------------  -----------------  -----------------  -----------------
         C            1.620984077367     0.027976089409     0.107569057375    12.000000000000
         C           -0.710701922633     1.422602089409     0.333831057375    12.000000000000
         S            0.150473077367     0.393819089409    -0.875860942625    31.972071174400
         H            1.346940077367    -0.500932910591     1.017611057375     1.007825032230
         H            2.266678077367    -0.606378910591    -0.494204942625     1.007825032230
         H            2.152080077367     0.945740089409     0.349944057375     1.007825032230
         H           -0.917347922633     0.853496089409     1.237401057375     1.007825032230
         H           -0.119154922633     2.304237089409     0.570245057375     1.007825032230
         H           -1.650106922633     1.736202089409    -0.114087942625     1.007825032230
         O           -1.028053922633    -1.910407910591     1.177846057375    15.994914619570
         H           -0.853547922633    -1.480903910591     0.329816057375     1.007825032230
         H           -1.521734922633    -2.697135910591     0.939993057375     1.007825032230

  Charge       = 0
  Multiplicity = 1
  Basis Set: AUG-CC-PVTZ
    Blend: AUG-CC-PVTZ
  Basis Set: (AUG-CC-PVTZ AUX)
    Blend: AUG-CC-PVTZ-JKFIT

    Orbital Energies [Eh]
    ---------------------

    Doubly Occupied:

       1A    -91.952404     2A    -20.552638     3A    -11.250677
       4A    -11.250667     5A     -8.952953     6A     -6.634315
       7A     -6.633377     8A     -6.632434     9A     -1.338989
      10A     -1.068292    11A     -0.953590    12A     -0.811984
      13A     -0.705582    14A     -0.607063    15A     -0.605398
      16A     -0.578997    17A     -0.574947    18A     -0.567905
      19A     -0.498206    20A     -0.494765    21A     -0.441676
      22A     -0.346717

  @DF-RHF Final Energy:  -552.86710484243167

   => Energetics <=

    Nuclear Repulsion Energy =            173.7562474853088759
    One-Electron Energy =               -1106.3395578754418693
    Two-Electron Energy =                 379.7162055477012359
    Total Energy =                       -552.8671048424316723

  Dipole Moment: [D]
     X:     0.1181      Y:     0.2191      Z:    -0.1307     Total:     0.2812

      * MP2 total energy                      = -553.784471471031111
      * CCSD total energy                     = -553.828947813067543
      * CCSD(T) total energy                  = -553.864723195040142
*** Psi4 exiting successfully. Buy a developer a beer!
