                               Psi4 1.4a2.dev224

  ==> Input File <==

--------------------------------------------------------------------------
#Generated by lconvert.py for cbs job

memory 50 GB

molecule  {
0 1
  C      -3.750532    0.043169    0.026787
  C      -2.716760   -0.864409    0.104803
  N      -1.573375   -0.118082    0.006370
  C      -1.950267    1.181318   -0.124296
  N      -3.267326    1.318933   -0.116175
  H      -0.623650   -0.467406    0.026910
  H      -4.806895   -0.157626    0.066144
  H      -2.696200   -1.932899    0.217225
  H      -1.235893    1.980319   -0.220912
--
0 1
  O       1.227973   -1.127488    0.064795
  H       1.811902   -1.187571    0.823699
  H       1.786098   -1.346783   -0.684153
units angstrom
no_reorient
symmetry c1
}

set {
scf_type DF
mp2_type DF
e_convergence 7
reference rhf
}

energy(cbs, corl_wfn='mp2', corl_basis='aug-cc-pv[tq]z', delta_wfn='ccsd(t)', delta_basis='aug-cc-pv[dt]z', bsse_type='cp')
--------------------------------------------------------------------------

    Molecular point group: c1
  Charge       = 0
  Multiplicity = 1
  Basis Set: AUG-CC-PVQZ
    Blend: AUG-CC-PVQZ
  Basis Set: (AUG-CC-PVQZ AUX)
    Blend: AUG-CC-PVQZ-JKFIT
  @DF-RHF Final Energy:   -76.06582813990278
    Total Energy =                        -76.0658281399027771
  Basis Set: (AUG-CC-PVQZ AUX)
    Blend: AUG-CC-PVQZ-RI
	 Reference Energy          =     -76.0658281399027771 [Eh]
	 Singles Energy            =      -0.0000000000000000 [Eh]
	 Same-Spin Energy          =      -0.0727031893250781 [Eh]
	 Opposite-Spin Energy      =      -0.2442097234990161 [Eh]
	 Correlation Energy        =      -0.3169129128240942 [Eh]
	 Total Energy              =     -76.3827410527268711 [Eh]
	 SCS Total Energy          =     -76.3831142045432898 [Eh]
    Molecular point group: c1
  Basis Set: AUG-CC-PVDZ
    Blend: AUG-CC-PVDZ
  Basis Set: (AUG-CC-PVDZ AUX)
    Blend: AUG-CC-PVDZ-JKFIT
  @DF-RHF Final Energy:   -76.04126958923376
    Total Energy =                        -76.0412695892337780
      * MP2 total energy                      =  -76.263306714183216
      * CCSD total energy                     =  -76.270810278773411
      * CCSD(T) total energy                  =  -76.276059428461934
  @DF-RHF Final Energy:   -76.06044602354088
    Total Energy =                        -76.0604460235408908
      * MP2 total energy                      =  -76.344120719499131
      * CCSD total energy                     =  -76.348717778467048
      * CCSD(T) total energy                  =  -76.357501334428079
  @DF-RHF Final Energy:   -76.06586304801195
    Total Energy =                        -76.0658630480119484
  @DF-RHF Final Energy:   -76.04169501674487
    Total Energy =                        -76.0416950167448675
      * MP2 total energy                      =  -76.264595961040740
      * CCSD total energy                     =  -76.272070035484703
      * CCSD(T) total energy                  =  -76.277443292323142
  @DF-RHF Final Energy:   -76.06051621176744
    Total Energy =                        -76.0605162117674354
      * MP2 total energy                      =  -76.345038414370393
      * CCSD total energy                     =  -76.349619035377387
      * CCSD(T) total energy                  =  -76.358438831236683
  @DF-RHF Final Energy:  -224.91001721050040
    Total Energy =                       -224.9100172105003992
  @DF-RHF Final Energy:  -224.84665887510403
    Total Energy =                       -224.8466588751040263
      * MP2 total energy                      = -225.614083441191156
      * CCSD total energy                     = -225.633045295371204
      * CCSD(T) total energy                  = -225.668444089597330
  @DF-RHF Final Energy:  -224.89674353630147
    Total Energy =                       -224.8967435363014715
      * MP2 total energy                      = -225.883892077077917
      * CCSD total energy                     = -225.893871122380688
      * CCSD(T) total energy                  = -225.942738852763483
  @DF-RHF Final Energy:  -224.91000331614299
    Total Energy =                       -224.9100033161429906
  @DF-RHF Final Energy:  -224.84650657470615
    Total Energy =                       -224.8465065747061544
      * MP2 total energy                      = -225.613394205192833
      * CCSD total energy                     = -225.632414328452001
      * CCSD(T) total energy                  = -225.667759700038260
  @DF-RHF Final Energy:  -224.89664145392726
    Total Energy =                       -224.8966414539272591
      * MP2 total energy                      = -225.882354999141825
      * CCSD total energy                     = -225.892307241921742
      * CCSD(T) total energy                  = -225.941140473439020
  @DF-RHF Final Energy:  -300.98331865358801
    Total Energy =                       -300.9833186535880145
	 Opposite-Spin Energy      =      -1.0809843254004516 [Eh]
	 Correlation Energy        =      -1.4133163659318135 [Eh]
	 Total Energy              =    -302.3966350195198061 [Eh]

	 ================> DF-SCS-MP2 Energies <==================
	-----------------------------------------------------------
	 SCS Same-Spin Scale       =       0.3333333333333333 [-]
	 SCS Opposite-Spin Scale   =       1.2000000000000000 [-]
	 SCS Same-Spin Energy      =      -0.1107773468437873 [Eh]
	 SCS Opposite-Spin Energy  =      -1.2971811904805419 [Eh]
	 SCS Correlation Energy    =      -1.4079585373243293 [Eh]
	 SCS Total Energy          =    -302.3912771909123194 [Eh]
	-----------------------------------------------------------

  Multiplicity = 1
  Basis Set: AUG-CC-PVDZ
    Blend: AUG-CC-PVDZ
  Basis Set: (AUG-CC-PVDZ AUX)
    Blend: AUG-CC-PVDZ-JKFIT
  @DF-RHF Final Energy:  -300.89570930772339
    Total Energy =                       -300.8957093077233935
      * MP2 total energy                      = -301.887902338603112
      * CCSD total energy                     = -301.913624791658151
      * CCSD(T) total energy                  = -301.954732943658428
    Molecular point group: c1

    Geometry (in Angstrom), charge = 0, multiplicity = 1:

       Center              X                  Y                   Z               Mass
    ------------   -----------------  -----------------  -----------------  -----------------
         C           -1.949632473764     0.043562386279     0.028913542969    12.000000000000
         C           -0.915860473764    -0.864015613721     0.106929542969    12.000000000000
         N            0.227524526236    -0.117688613721     0.008496542969    14.003074004430
         C           -0.149367473764     1.181711386279    -0.122169457031    12.000000000000
         N           -1.466426473764     1.319326386279    -0.114048457031    14.003074004430
         H            1.177249526236    -0.467012613721     0.029036542969     1.007825032230
         H           -3.005995473764    -0.157232613721     0.068270542969     1.007825032230
         H           -0.895300473764    -1.932505613721     0.219351542969     1.007825032230
         H            0.565006526236     1.980712386279    -0.218785457031     1.007825032230
         O            3.028872526236    -1.127094613721     0.066921542969    15.994914619570
         H            3.612801526236    -1.187177613721     0.825825542969     1.007825032230
         H            3.586997526236    -1.346389613721    -0.682026457031     1.007825032230

  Charge       = 0
  Multiplicity = 1
  Basis Set: AUG-CC-PVTZ
    Blend: AUG-CC-PVTZ
  Basis Set: (AUG-CC-PVTZ AUX)
    Blend: AUG-CC-PVTZ-JKFIT

    Orbital Energies [Eh]
    ---------------------

    Doubly Occupied:

       1A    -20.606071     2A    -15.600881     3A    -15.531861
       4A    -11.280223     5A    -11.245171     6A    -11.229000
       7A     -1.393556     8A     -1.324046     9A     -1.150093
      10A     -0.989456    11A     -0.812310    12A     -0.784103
      13A     -0.755931    14A     -0.744235    15A     -0.638180
      16A     -0.587471    17A     -0.582082    18A     -0.581401
      19A     -0.555480    20A     -0.551178    21A     -0.424013
      22A     -0.384108    23A     -0.303406

  @DF-RHF Final Energy:  -300.96465529595662

   => Energetics <=

    Nuclear Repulsion Energy =            219.2622782856553556
    One-Electron Energy =                -844.3453539038353028
    Two-Electron Energy =                 324.1184203222233009
    Total Energy =                       -300.9646552959566179

  Dipole Moment: [D]
     X:     5.9348      Y:    -3.1140      Z:     0.2268     Total:     6.7060

      * MP2 total energy                      = -302.238694984565427
      * CCSD total energy                     = -302.252585411689779
      * CCSD(T) total energy                  = -302.310676559011483
*** Psi4 exiting successfully. Buy a developer a beer!
