                               Psi4 1.4a2.dev224

  ==> Input File <==

--------------------------------------------------------------------------
#Generated by lconvert.py for cbs job

memory 50 GB

molecule  {
0 1
  C       1.952940   -0.000018    0.000020
  H       2.317652   -0.471621    0.907564
  H       2.317719   -0.550418   -0.861991
  H       2.320028    1.020922   -0.045477
  H       0.867409    0.001596   -0.000090
--
0 1
  O      -1.024535    0.000699   -0.000105
  H      -1.620152    0.752569    0.000387
  H      -1.615690   -0.754684    0.000385
units angstrom
no_reorient
symmetry c1
}

set {
scf_type DF
mp2_type DF
e_convergence 7
reference rhf
}

energy(cbs, corl_wfn='mp2', corl_basis='aug-cc-pv[tq]z', delta_wfn='ccsd(t)', delta_basis='aug-cc-pv[dt]z', bsse_type='cp')
--------------------------------------------------------------------------

    Molecular point group: c1
  Charge       = 0
  Multiplicity = 1
  Basis Set: AUG-CC-PVQZ
    Blend: AUG-CC-PVQZ
  Basis Set: (AUG-CC-PVQZ AUX)
    Blend: AUG-CC-PVQZ-JKFIT
  @DF-RHF Final Energy:   -76.06577167032606
    Total Energy =                        -76.0657716703260576
  Basis Set: (AUG-CC-PVQZ AUX)
    Blend: AUG-CC-PVQZ-RI
	 Reference Energy          =     -76.0657716703260576 [Eh]
	 Singles Energy            =      -0.0000000000000000 [Eh]
	 Same-Spin Energy          =      -0.0727159277532642 [Eh]
	 Opposite-Spin Energy      =      -0.2442419924531258 [Eh]
	 Correlation Energy        =      -0.3169579202063899 [Eh]
	 Total Energy              =     -76.3827295905324490 [Eh]
	 SCS Total Energy          =     -76.3831007038542253 [Eh]
    Molecular point group: c1
  Basis Set: AUG-CC-PVDZ
    Blend: AUG-CC-PVDZ
  Basis Set: (AUG-CC-PVDZ AUX)
    Blend: AUG-CC-PVDZ-JKFIT
  @DF-RHF Final Energy:   -76.04122073555754
    Total Energy =                        -76.0412207355575447
      * MP2 total energy                      =  -76.263294377320051
      * CCSD total energy                     =  -76.270790650797366
      * CCSD(T) total energy                  =  -76.276043147968338
  @DF-RHF Final Energy:   -76.06038729511361
    Total Energy =                        -76.0603872951135997
      * MP2 total energy                      =  -76.344110782259762
      * CCSD total energy                     =  -76.348700891293973
      * CCSD(T) total energy                  =  -76.357487900688881
  @DF-RHF Final Energy:   -76.06580387257230
    Total Energy =                        -76.0658038725723031
  @DF-RHF Final Energy:   -76.04164618992030
    Total Energy =                        -76.0416461899203000
      * MP2 total energy                      =  -76.264574577868444
      * CCSD total energy                     =  -76.272041514014361
      * CCSD(T) total energy                  =  -76.277415631990564
  @DF-RHF Final Energy:   -76.06044896181373
    Total Energy =                        -76.0604489618137336
      * MP2 total energy                      =  -76.344852217182805
      * CCSD total energy                     =  -76.349417714327942
      * CCSD(T) total energy                  =  -76.358238099648162
  @DF-RHF Final Energy:   -40.21630072829344
    Total Energy =                        -40.2163007282934402
  @DF-RHF Final Energy:   -40.19972914111307
    Total Energy =                        -40.1997291411130675
      * MP2 total energy                      =  -40.370974285962056
      * CCSD total energy                     =  -40.394048088367377
      * CCSD(T) total energy                  =  -40.398592604816479
  @DF-RHF Final Energy:   -40.21368258161890
    Total Energy =                        -40.2136825816188974
      * MP2 total energy                      =  -40.433596488819106
      * CCSD total energy                     =  -40.454247735496821
      * CCSD(T) total energy                  =  -40.460965733955959
  @DF-RHF Final Energy:   -40.21629336356182
    Total Energy =                        -40.2162933635618245
  @DF-RHF Final Energy:   -40.19959202603636
    Total Energy =                        -40.1995920260363562
      * MP2 total energy                      =  -40.370467414894861
      * CCSD total energy                     =  -40.393582555602848
      * CCSD(T) total energy                  =  -40.398094895264208
  @DF-RHF Final Energy:   -40.21366223797383
    Total Energy =                        -40.2136622379738284
      * MP2 total energy                      =  -40.432971483869125
      * CCSD total energy                     =  -40.453615535348156
      * CCSD(T) total energy                  =  -40.460321706246255
  @DF-RHF Final Energy:  -116.27373920018236
    Total Energy =                       -116.2737392001823622
	 Opposite-Spin Energy      =      -0.4451236976781693 [Eh]
	 Correlation Energy        =      -0.5615903189200643 [Eh]
	 Total Energy              =    -116.8353295191024301 [Eh]

	 ================> DF-SCS-MP2 Energies <==================
	-----------------------------------------------------------
	 SCS Same-Spin Scale       =       0.3333333333333333 [-]
	 SCS Opposite-Spin Scale   =       1.2000000000000000 [-]
	 SCS Same-Spin Energy      =      -0.0388222070806316 [Eh]
	 SCS Opposite-Spin Energy  =      -0.5341484372138032 [Eh]
	 SCS Correlation Energy    =      -0.5729706442944349 [Eh]
	 SCS Total Energy          =    -116.8467098444767913 [Eh]
	-----------------------------------------------------------

  Multiplicity = 1
  Basis Set: AUG-CC-PVDZ
    Blend: AUG-CC-PVDZ
  Basis Set: (AUG-CC-PVDZ AUX)
    Blend: AUG-CC-PVDZ-JKFIT
  @DF-RHF Final Energy:  -116.23288081818691
    Total Energy =                       -116.2328808181869135
      * MP2 total energy                      = -116.629938583839746
      * CCSD total energy                     = -116.659936917380946
      * CCSD(T) total energy                  = -116.670288850605971
    Molecular point group: c1

    Geometry (in Angstrom), charge = 0, multiplicity = 1:

       Center              X                  Y                   Z               Mass
    ------------   -----------------  -----------------  -----------------  -----------------
         C            1.610103631571    -0.000291652563     0.000039252123    12.000000000000
         H            1.974815631571    -0.471894652563     0.907583252123     1.007825032230
         H            1.974882631571    -0.550691652563    -0.861971747877     1.007825032230
         H            1.977191631571     1.020648347437    -0.045457747877     1.007825032230
         H            0.524572631571     0.001322347437    -0.000070747877     1.007825032230
         O           -1.367371368429     0.000425347437    -0.000085747877    15.994914619570
         H           -1.962988368429     0.752295347437     0.000406252123     1.007825032230
         H           -1.958526368429    -0.754957652563     0.000404252123     1.007825032230

  Charge       = 0
  Multiplicity = 1
  Basis Set: AUG-CC-PVTZ
    Blend: AUG-CC-PVTZ
  Basis Set: (AUG-CC-PVTZ AUX)
    Blend: AUG-CC-PVTZ-JKFIT

    Orbital Energies [Eh]
    ---------------------

    Doubly Occupied:

       1A    -20.574786     2A    -11.171911     3A     -1.364289
       4A     -0.917241     5A     -0.724528     6A     -0.620736
       7A     -0.523293     8A     -0.519071     9A     -0.516338
      10A     -0.493720

  @DF-RHF Final Energy:  -116.26572093469341

   => Energetics <=

    Nuclear Repulsion Energy =             39.9834078386855296
    One-Electron Energy =                -237.6464267195606510
    Two-Electron Energy =                  81.3972979461817090
    Total Energy =                       -116.2657209346934053

  Dipole Moment: [D]
     X:    -2.6199      Y:    -0.0062      Z:     0.0017     Total:     2.6199

      * MP2 total energy                      = -116.773687737204966
      * CCSD total energy                     = -116.798361087309573
      * CCSD(T) total energy                  = -116.814441935949688
*** Psi4 exiting successfully. Buy a developer a beer!
