                               Psi4 1.4a2.dev224

  ==> Input File <==

--------------------------------------------------------------------------
#Generated by lconvert.py for cbs job

memory 50 GB

molecule  {
0 1
  C       1.952940   -0.000018    0.000020
  H       2.317652   -0.471621    0.907564
  H       2.317719   -0.550418   -0.861991
  H       2.320028    1.020922   -0.045477
  H       0.867409    0.001596   -0.000090
--
0 1
  O      -1.835368    0.000314   -0.000111
  H      -2.430985    0.752184    0.000381
  H      -2.426523   -0.755069    0.000379
units angstrom
no_reorient
symmetry c1
}

set {
scf_type DF
mp2_type DF
e_convergence 7
reference rhf
}

energy(cbs, corl_wfn='mp2', corl_basis='aug-cc-pv[tq]z', delta_wfn='ccsd(t)', delta_basis='aug-cc-pv[dt]z', bsse_type='cp')
--------------------------------------------------------------------------

    Molecular point group: c1
  Charge       = 0
  Multiplicity = 1
  Basis Set: AUG-CC-PVQZ
    Blend: AUG-CC-PVQZ
  Basis Set: (AUG-CC-PVQZ AUX)
    Blend: AUG-CC-PVQZ-JKFIT
  @DF-RHF Final Energy:   -76.06577167031297
    Total Energy =                        -76.0657716703129694
  Basis Set: (AUG-CC-PVQZ AUX)
    Blend: AUG-CC-PVQZ-RI
	 Reference Energy          =     -76.0657716703129694 [Eh]
	 Singles Energy            =      -0.0000000000000000 [Eh]
	 Same-Spin Energy          =      -0.0727159277532518 [Eh]
	 Opposite-Spin Energy      =      -0.2442419924531378 [Eh]
	 Correlation Energy        =      -0.3169579202063896 [Eh]
	 Total Energy              =     -76.3827295905193608 [Eh]
	 SCS Total Energy          =     -76.3831007038411514 [Eh]
    Molecular point group: c1
  Basis Set: AUG-CC-PVDZ
    Blend: AUG-CC-PVDZ
  Basis Set: (AUG-CC-PVDZ AUX)
    Blend: AUG-CC-PVDZ-JKFIT
  @DF-RHF Final Energy:   -76.04122073555089
    Total Energy =                        -76.0412207355508940
      * MP2 total energy                      =  -76.263294377319980
      * CCSD total energy                     =  -76.270790650797295
      * CCSD(T) total energy                  =  -76.276043147968267
  @DF-RHF Final Energy:   -76.06038729511457
    Total Energy =                        -76.0603872951145661
      * MP2 total energy                      =  -76.344110782259577
      * CCSD total energy                     =  -76.348700891293817
      * CCSD(T) total energy                  =  -76.357487900688710
  @DF-RHF Final Energy:   -76.06578615354675
    Total Energy =                        -76.0657861535467674
  @DF-RHF Final Energy:   -76.04134674935781
    Total Energy =                        -76.0413467493578139
      * MP2 total energy                      =  -76.263672118175137
      * CCSD total energy                     =  -76.271154746821892
      * CCSD(T) total energy                  =  -76.276443008563376
  @DF-RHF Final Energy:   -76.06041613844363
    Total Energy =                        -76.0604161384436281
      * MP2 total energy                      =  -76.344352956389784
      * CCSD total energy                     =  -76.348932642567206
      * CCSD(T) total energy                  =  -76.357733834841667
  @DF-RHF Final Energy:   -40.21629632960286
    Total Energy =                        -40.2162963296028622
  @DF-RHF Final Energy:   -40.19965970555608
    Total Energy =                        -40.1996597055560798
      * MP2 total energy                      =  -40.370717535443930
      * CCSD total energy                     =  -40.393814802801757
      * CCSD(T) total energy                  =  -40.398343613866771
  @DF-RHF Final Energy:   -40.21367350920092
    Total Energy =                        -40.2136735092009161
      * MP2 total energy                      =  -40.433289211247661
      * CCSD total energy                     =  -40.453943175214931
      * CCSD(T) total energy                  =  -40.460654295489178
  @DF-RHF Final Energy:   -40.21629336355863
    Total Energy =                        -40.2162933635586270
  @DF-RHF Final Energy:   -40.19959202603168
    Total Energy =                        -40.1995920260316808
      * MP2 total energy                      =  -40.370467414894840
      * CCSD total energy                     =  -40.393582555602791
      * CCSD(T) total energy                  =  -40.398094895264144
  @DF-RHF Final Energy:   -40.21366223797190
    Total Energy =                        -40.2136622379718887
      * MP2 total energy                      =  -40.432971483868776
      * CCSD total energy                     =  -40.453615535347865
      * CCSD(T) total energy                  =  -40.460321706245963
  @DF-RHF Final Energy:  -116.28217809033325
    Total Energy =                       -116.2821780903332467
	 Opposite-Spin Energy      =      -0.4434481608054244 [Eh]
	 Correlation Energy        =      -0.5582561350472666 [Eh]
	 Total Energy              =    -116.8404342253805197 [Eh]

	 ================> DF-SCS-MP2 Energies <==================
	-----------------------------------------------------------
	 SCS Same-Spin Scale       =       0.3333333333333333 [-]
	 SCS Opposite-Spin Scale   =       1.2000000000000000 [-]
	 SCS Same-Spin Energy      =      -0.0382693247472807 [Eh]
	 SCS Opposite-Spin Energy  =      -0.5321377929665092 [Eh]
	 SCS Correlation Energy    =      -0.5704071177137899 [Eh]
	 SCS Total Energy          =    -116.8525852080470315 [Eh]
	-----------------------------------------------------------

  Multiplicity = 1
  Basis Set: AUG-CC-PVDZ
    Blend: AUG-CC-PVDZ
  Basis Set: (AUG-CC-PVDZ AUX)
    Blend: AUG-CC-PVDZ-JKFIT
  @DF-RHF Final Energy:  -116.24111094698036
    Total Energy =                       -116.2411109469803563
      * MP2 total energy                      = -116.635206516741064
      * CCSD total energy                     = -116.665710807845855
      * CCSD(T) total energy                  = -116.675641790285397
    Molecular point group: c1

    Geometry (in Angstrom), charge = 0, multiplicity = 1:

       Center              X                  Y                   Z               Mass
    ------------   -----------------  -----------------  -----------------  -----------------
         C            2.039091886906    -0.000087960214     0.000042426549    12.000000000000
         H            2.403803886906    -0.471690960214     0.907586426549     1.007825032230
         H            2.403870886906    -0.550487960214    -0.861968573451     1.007825032230
         H            2.406179886906     1.020852039786    -0.045454573451     1.007825032230
         H            0.953560886906     0.001526039786    -0.000067573451     1.007825032230
         O           -1.749216113094     0.000244039786    -0.000088573451    15.994914619570
         H           -2.344833113094     0.752114039786     0.000403426549     1.007825032230
         H           -2.340371113094    -0.755138960214     0.000401426549     1.007825032230

  Charge       = 0
  Multiplicity = 1
  Basis Set: AUG-CC-PVTZ
    Blend: AUG-CC-PVTZ
  Basis Set: (AUG-CC-PVTZ AUX)
    Blend: AUG-CC-PVTZ-JKFIT

    Orbital Energies [Eh]
    ---------------------

    Doubly Occupied:

       1A    -20.570426     2A    -11.188851     3A     -1.356105
       4A     -0.928625     5A     -0.717630     6A     -0.591968
       7A     -0.530672     8A     -0.530637     9A     -0.526655
      10A     -0.513274

  @DF-RHF Final Energy:  -116.27418396667360

   => Energetics <=

    Nuclear Repulsion Energy =             36.2937151829822611
    One-Electron Energy =                -230.2261088319035025
    Two-Electron Energy =                  77.6582096822476444
    Total Energy =                       -116.2741839666736041

  Dipole Moment: [D]
     X:    -2.2281      Y:    -0.0060      Z:     0.0017     Total:     2.2281

      * MP2 total energy                      = -116.778568598787999
      * CCSD total energy                     = -116.803722358703411
      * CCSD(T) total energy                  = -116.819372706156159
*** Psi4 exiting successfully. Buy a developer a beer!
