                               Psi4 1.4a2.dev224

  ==> Input File <==

--------------------------------------------------------------------------
#Generated by lconvert.py for cbs job

memory 50 GB

molecule  {
0 1
  C       1.291256   -0.666906   -0.014685
  H       1.586315   -1.228546    0.860095
  H       1.000954   -1.228627   -0.891016
  C       1.291175    0.666928   -0.014694
  H       1.000800    1.228600   -0.891033
  H       1.586159    1.228617    0.860079
--
0 1
  O      -2.119083   -0.000025   -0.082803
  H      -1.179012    0.000067    0.120574
  H      -2.537142   -0.000039    0.779998
units angstrom
no_reorient
symmetry c1
}

set {
scf_type DF
mp2_type DF
e_convergence 7
reference rhf
}

energy(cbs, corl_wfn='mp2', corl_basis='aug-cc-pv[tq]z', delta_wfn='ccsd(t)', delta_basis='aug-cc-pv[dt]z', bsse_type='cp')
--------------------------------------------------------------------------

    Molecular point group: c1
  Charge       = 0
  Multiplicity = 1
  Basis Set: AUG-CC-PVQZ
    Blend: AUG-CC-PVQZ
  Basis Set: (AUG-CC-PVQZ AUX)
    Blend: AUG-CC-PVQZ-JKFIT
  @DF-RHF Final Energy:   -76.06569091403811
    Total Energy =                        -76.0656909140381146
  Basis Set: (AUG-CC-PVQZ AUX)
    Blend: AUG-CC-PVQZ-RI
	 Reference Energy          =     -76.0656909140381146 [Eh]
	 Singles Energy            =      -0.0000000000000000 [Eh]
	 Same-Spin Energy          =      -0.0727315598444595 [Eh]
	 Opposite-Spin Energy      =      -0.2442972890290616 [Eh]
	 Correlation Energy        =      -0.3170288488735211 [Eh]
	 Total Energy              =     -76.3827197629116341 [Eh]
	 SCS Total Energy          =     -76.3830915141544722 [Eh]
    Molecular point group: c1
  Basis Set: AUG-CC-PVDZ
    Blend: AUG-CC-PVDZ
  Basis Set: (AUG-CC-PVDZ AUX)
    Blend: AUG-CC-PVDZ-JKFIT
  @DF-RHF Final Energy:   -76.04115425622800
    Total Energy =                        -76.0411542562279976
      * MP2 total energy                      =  -76.263315973350998
      * CCSD total energy                     =  -76.270807524638911
      * CCSD(T) total energy                  =  -76.276067596320829
  @DF-RHF Final Energy:   -76.06031212450829
    Total Energy =                        -76.0603121245083003
      * MP2 total energy                      =  -76.344106017649125
      * CCSD total energy                     =  -76.348686391534926
      * CCSD(T) total energy                  =  -76.357483929446886
  @DF-RHF Final Energy:   -76.06570919143607
    Total Energy =                        -76.0657091914360706
  @DF-RHF Final Energy:   -76.04126791063628
    Total Energy =                        -76.0412679106362788
      * MP2 total energy                      =  -76.263860845478717
      * CCSD total energy                     =  -76.271325807107587
      * CCSD(T) total energy                  =  -76.276653286451747
  @DF-RHF Final Energy:   -76.06036669818414
    Total Energy =                        -76.0603666981841400
      * MP2 total energy                      =  -76.344724588513515
      * CCSD total energy                     =  -76.349305867370376
      * CCSD(T) total energy                  =  -76.358123050224819
  @DF-RHF Final Energy:   -78.06938850050291
    Total Energy =                        -78.0693885005029102
  @DF-RHF Final Energy:   -78.04374422310435
    Total Energy =                        -78.0437442231043690
      * MP2 total energy                      =  -78.334920301257995
      * CCSD total energy                     =  -78.363605168333066
      * CCSD(T) total energy                  =  -78.374951478567837
  @DF-RHF Final Energy:   -78.06472606596155
    Total Energy =                        -78.0647260659615512
      * MP2 total energy                      =  -78.440619198523990
      * CCSD total energy                     =  -78.465567310347424
      * CCSD(T) total energy                  =  -78.481502029789894
  @DF-RHF Final Energy:   -78.06936792156574
    Total Energy =                        -78.0693679215657426
  @DF-RHF Final Energy:   -78.04349209061516
    Total Energy =                        -78.0434920906151604
      * MP2 total energy                      =  -78.333792853267326
      * CCSD total energy                     =  -78.362538393305059
      * CCSD(T) total energy                  =  -78.373762069433539
  @DF-RHF Final Energy:   -78.06465725952886
    Total Energy =                        -78.0646572595288575
      * MP2 total energy                      =  -78.439889634952436
      * CCSD total energy                     =  -78.464868154467794
      * CCSD(T) total energy                  =  -78.480775779978899
  @DF-RHF Final Energy:  -154.13673034158103
    Total Energy =                       -154.1367303415810284
	 Opposite-Spin Energy      =      -0.5798031617149321 [Eh]
	 Correlation Energy        =      -0.7354081958450429 [Eh]
	 Total Energy              =    -154.8721385374260819 [Eh]

	 ================> DF-SCS-MP2 Energies <==================
	-----------------------------------------------------------
	 SCS Same-Spin Scale       =       0.3333333333333333 [-]
	 SCS Opposite-Spin Scale   =       1.2000000000000000 [-]
	 SCS Same-Spin Energy      =      -0.0518683447100369 [Eh]
	 SCS Opposite-Spin Energy  =      -0.6957637940579184 [Eh]
	 SCS Correlation Energy    =      -0.7476321387679554 [Eh]
	 SCS Total Energy          =    -154.8843624803489831 [Eh]
	-----------------------------------------------------------

  Multiplicity = 1
  Basis Set: AUG-CC-PVDZ
    Blend: AUG-CC-PVDZ
  Basis Set: (AUG-CC-PVDZ AUX)
    Blend: AUG-CC-PVDZ-JKFIT
  @DF-RHF Final Energy:  -154.08658562374384
    Total Energy =                       -154.0865856237438436
      * MP2 total energy                      = -154.602356873424611
      * CCSD total energy                     = -154.637891556526597
      * CCSD(T) total energy                  = -154.654888095310184
    Molecular point group: c1

    Geometry (in Angstrom), charge = 0, multiplicity = 1:

       Center              X                  Y                   Z               Mass
    ------------   -----------------  -----------------  -----------------  -----------------
         C            1.322442751157    -0.666904624959     0.003379322276    12.000000000000
         H            1.617501751157    -1.228544624959     0.878159322276     1.007825032230
         H            1.032140751157    -1.228625624959    -0.872951677724     1.007825032230
         C            1.322361751157     0.666929375041     0.003370322276    12.000000000000
         H            1.031986751157     1.228601375041    -0.872968677724     1.007825032230
         H            1.617345751157     1.228618375041     0.878143322276     1.007825032230
         O           -2.087896248843    -0.000023624959    -0.064738677724    15.994914619570
         H           -1.147825248843     0.000068375041     0.138638322276     1.007825032230
         H           -2.505955248843    -0.000037624959     0.798062322276     1.007825032230

  Charge       = 0
  Multiplicity = 1
  Basis Set: AUG-CC-PVTZ
    Blend: AUG-CC-PVTZ
  Basis Set: (AUG-CC-PVTZ AUX)
    Blend: AUG-CC-PVTZ-JKFIT

    Orbital Energies [Eh]
    ---------------------

    Doubly Occupied:

       1A    -20.552877     2A    -11.243619     3A    -11.241909
       4A     -1.339202     5A     -1.048357     6A     -0.805577
       7A     -0.702581     8A     -0.656767     9A     -0.599563
      10A     -0.574070    11A     -0.520429    12A     -0.496679
      13A     -0.391951

  @DF-RHF Final Energy:  -154.12672866533177

   => Energetics <=

    Nuclear Repulsion Energy =             67.0695068704863502
    One-Electron Energy =                -342.0453062836101594
    Two-Electron Energy =                 120.8490707477920267
    Total Energy =                       -154.1267286653317683

  Dipole Moment: [D]
     X:     1.2712      Y:     0.0001      Z:     1.6927     Total:     2.1169

      * MP2 total energy                      = -154.789471208430427
      * CCSD total energy                     = -154.818336986269401
      * CCSD(T) total energy                  = -154.843492759408264
*** Psi4 exiting successfully. Buy a developer a beer!
