                               Psi4 1.4a2.dev224

  ==> Input File <==

--------------------------------------------------------------------------
#Generated by lconvert.py for cbs job

memory 50 GB

molecule  {
0 1
  C       1.291256   -0.666906   -0.014685
  H       1.586315   -1.228546    0.860095
  H       1.000954   -1.228627   -0.891016
  C       1.291175    0.666928   -0.014694
  H       1.000800    1.228600   -0.891033
  H       1.586159    1.228617    0.860079
--
0 1
  O      -1.311365   -0.000043   -0.127062
  H      -0.371294    0.000049    0.076315
  H      -1.729424   -0.000057    0.735739
units angstrom
no_reorient
symmetry c1
}

set {
scf_type DF
mp2_type DF
e_convergence 7
reference rhf
}

energy(cbs, corl_wfn='mp2', corl_basis='aug-cc-pv[tq]z', delta_wfn='ccsd(t)', delta_basis='aug-cc-pv[dt]z', bsse_type='cp')
--------------------------------------------------------------------------

    Molecular point group: c1
  Charge       = 0
  Multiplicity = 1
  Basis Set: AUG-CC-PVQZ
    Blend: AUG-CC-PVQZ
  Basis Set: (AUG-CC-PVQZ AUX)
    Blend: AUG-CC-PVQZ-JKFIT
  @DF-RHF Final Energy:   -76.06569091403597
    Total Energy =                        -76.0656909140359687
  Basis Set: (AUG-CC-PVQZ AUX)
    Blend: AUG-CC-PVQZ-RI
	 Reference Energy          =     -76.0656909140359687 [Eh]
	 Singles Energy            =      -0.0000000000000000 [Eh]
	 Same-Spin Energy          =      -0.0727315598444908 [Eh]
	 Opposite-Spin Energy      =      -0.2442972890290142 [Eh]
	 Correlation Energy        =      -0.3170288488735050 [Eh]
	 Total Energy              =     -76.3827197629094741 [Eh]
	 SCS Total Energy          =     -76.3830915141522837 [Eh]
    Molecular point group: c1
  Basis Set: AUG-CC-PVDZ
    Blend: AUG-CC-PVDZ
  Basis Set: (AUG-CC-PVDZ AUX)
    Blend: AUG-CC-PVDZ-JKFIT
  @DF-RHF Final Energy:   -76.04115425622850
    Total Energy =                        -76.0411542562285092
      * MP2 total energy                      =  -76.263315973350799
      * CCSD total energy                     =  -76.270807524638698
      * CCSD(T) total energy                  =  -76.276067596320630
  @DF-RHF Final Energy:   -76.06031212450615
    Total Energy =                        -76.0603121245061544
      * MP2 total energy                      =  -76.344106017649281
      * CCSD total energy                     =  -76.348686391535097
      * CCSD(T) total energy                  =  -76.357483929447042
  @DF-RHF Final Energy:   -76.06572780381724
    Total Energy =                        -76.0657278038172393
  @DF-RHF Final Energy:   -76.04155428314337
    Total Energy =                        -76.0415542831433697
      * MP2 total energy                      =  -76.264744130017576
      * CCSD total energy                     =  -76.272179330357176
      * CCSD(T) total energy                  =  -76.277592319622244
  @DF-RHF Final Energy:   -76.06042623949753
    Total Energy =                        -76.0604262394975308
      * MP2 total energy                      =  -76.345433241118840
      * CCSD total energy                     =  -76.350006392519234
      * CCSD(T) total energy                  =  -76.358845694489631
  @DF-RHF Final Energy:   -78.06940077813766
    Total Energy =                        -78.0694007781376627
  @DF-RHF Final Energy:   -78.04398373558321
    Total Energy =                        -78.0439837355832111
      * MP2 total energy                      =  -78.336296482032793
      * CCSD total energy                     =  -78.364852765900721
      * CCSD(T) total energy                  =  -78.376322598314374
  @DF-RHF Final Energy:   -78.06479746404318
    Total Energy =                        -78.0647974640431812
      * MP2 total energy                      =  -78.442144067095029
      * CCSD total energy                     =  -78.467039647559091
      * CCSD(T) total energy                  =  -78.483020059109350
  @DF-RHF Final Energy:   -78.06936792173394
    Total Energy =                        -78.0693679217339422
  @DF-RHF Final Energy:   -78.04349209060075
    Total Energy =                        -78.0434920906007505
      * MP2 total energy                      =  -78.333792853267880
      * CCSD total energy                     =  -78.362538393305414
      * CCSD(T) total energy                  =  -78.373762069433951
  @DF-RHF Final Energy:   -78.06465725954121
    Total Energy =                        -78.0646572595412067
      * MP2 total energy                      =  -78.439889634948742
      * CCSD total energy                     =  -78.464868154463929
      * CCSD(T) total energy                  =  -78.480775779974877
  @DF-RHF Final Energy:  -154.11263570814458
    Total Energy =                       -154.1126357081445803
	 Opposite-Spin Energy      =      -0.5855714639329077 [Eh]
	 Correlation Energy        =      -0.7457257957906877 [Eh]
	 Total Energy              =    -154.8583615039352708 [Eh]

	 ================> DF-SCS-MP2 Energies <==================
	-----------------------------------------------------------
	 SCS Same-Spin Scale       =       0.3333333333333333 [-]
	 SCS Opposite-Spin Scale   =       1.2000000000000000 [-]
	 SCS Same-Spin Energy      =      -0.0533847772859266 [Eh]
	 SCS Opposite-Spin Energy  =      -0.7026857567194892 [Eh]
	 SCS Correlation Energy    =      -0.7560705340054158 [Eh]
	 SCS Total Energy          =    -154.8687062421499832 [Eh]
	-----------------------------------------------------------

  Multiplicity = 1
  Basis Set: AUG-CC-PVDZ
    Blend: AUG-CC-PVDZ
  Basis Set: (AUG-CC-PVDZ AUX)
    Blend: AUG-CC-PVDZ-JKFIT
  @DF-RHF Final Energy:  -154.06306748651880
    Total Energy =                       -154.0630674865188041
      * MP2 total energy                      = -154.587581181833428
      * CCSD total energy                     = -154.620863038617472
      * CCSD(T) total energy                  = -154.638945273333121
    Molecular point group: c1

    Geometry (in Angstrom), charge = 0, multiplicity = 1:

       Center              X                  Y                   Z               Mass
    ------------   -----------------  -----------------  -----------------  -----------------
         C            1.006481237770    -0.666897583755     0.020692469465    12.000000000000
         H            1.301540237770    -1.228537583755     0.895472469465     1.007825032230
         H            0.716179237770    -1.228618583755    -0.855638530535     1.007825032230
         C            1.006400237770     0.666936416245     0.020683469465    12.000000000000
         H            0.716025237770     1.228608416245    -0.855655530535     1.007825032230
         H            1.301384237770     1.228625416245     0.895456469465     1.007825032230
         O           -1.596139762230    -0.000034583755    -0.091684530535    15.994914619570
         H           -0.656068762230     0.000057416245     0.111692469465     1.007825032230
         H           -2.014198762230    -0.000048583755     0.771116469465     1.007825032230

  Charge       = 0
  Multiplicity = 1
  Basis Set: AUG-CC-PVTZ
    Blend: AUG-CC-PVTZ
  Basis Set: (AUG-CC-PVTZ AUX)
    Blend: AUG-CC-PVTZ-JKFIT

    Orbital Energies [Eh]
    ---------------------

    Doubly Occupied:

       1A    -20.527766     2A    -11.248490     3A    -11.246773
       4A     -1.326692     5A     -1.063501     6A     -0.813079
       7A     -0.704770     8A     -0.656844     9A     -0.607574
      10A     -0.563981    11A     -0.527793    12A     -0.477400
      13A     -0.391139

  @DF-RHF Final Energy:  -154.10272790619649

   => Energetics <=

    Nuclear Repulsion Energy =             74.2252402652643042
    One-Electron Energy =                -356.3443309067521909
    Two-Electron Energy =                 128.0163627352914091
    Total Energy =                       -154.1027279061964919

  Dipole Moment: [D]
     X:     1.5716      Y:     0.0000      Z:     1.6519     Total:     2.2801

      * MP2 total energy                      = -154.776268986677053
      * CCSD total energy                     = -154.802847225026426
      * CCSD(T) total energy                  = -154.829224915547030
*** Psi4 exiting successfully. Buy a developer a beer!
