                               Psi4 1.4a2.dev224

  ==> Input File <==

--------------------------------------------------------------------------
#Generated by lconvert.py for cbs job

memory 50 GB

molecule  {
0 1
  O       1.584936    0.104693    0.000005
  H       1.949373   -0.781150    0.000052
  H       0.626503   -0.040425   -0.000323
--
0 1
  N      -0.799872   -0.030093   -0.000108
  H      -1.271182   -0.384444    0.821824
  H      -0.991070    0.963350   -0.025990
  H      -1.280966   -0.428502   -0.795767
units angstrom
no_reorient
symmetry c1
}

set {
scf_type DF
mp2_type DF
e_convergence 7
reference rhf
}

energy(cbs, corl_wfn='mp2', corl_basis='aug-cc-pv[tq]z', delta_wfn='ccsd(t)', delta_basis='aug-cc-pv[dt]z', bsse_type='cp')
--------------------------------------------------------------------------

    Molecular point group: c1
  Charge       = 0
  Multiplicity = 1
  Basis Set: AUG-CC-PVQZ
    Blend: AUG-CC-PVQZ
  Basis Set: (AUG-CC-PVQZ AUX)
    Blend: AUG-CC-PVQZ-JKFIT
  @DF-RHF Final Energy:   -56.22391379988407
    Total Energy =                        -56.2239137998840732
  Basis Set: (AUG-CC-PVQZ AUX)
    Blend: AUG-CC-PVQZ-RI
	 Reference Energy          =     -56.2239137998840732 [Eh]
	 Singles Energy            =      -0.0000000000000000 [Eh]
	 Same-Spin Energy          =      -0.0593979124385961 [Eh]
	 Opposite-Spin Energy      =      -0.2247831605039637 [Eh]
	 Correlation Energy        =      -0.2841810729425597 [Eh]
	 Total Energy              =     -56.5080948728266321 [Eh]
	 SCS Total Energy          =     -56.5134528966350302 [Eh]
    Molecular point group: c1
  Basis Set: AUG-CC-PVDZ
    Blend: AUG-CC-PVDZ
  Basis Set: (AUG-CC-PVDZ AUX)
    Blend: AUG-CC-PVDZ-JKFIT
  @DF-RHF Final Energy:   -56.20535129751054
    Total Energy =                        -56.2053512975105463
      * MP2 total energy                      =  -56.407510719286456
      * CCSD total energy                     =  -56.422286043405258
      * CCSD(T) total energy                  =  -56.427783012612601
  @DF-RHF Final Energy:   -56.22026229478548
    Total Energy =                        -56.2202622947854849
      * MP2 total energy                      =  -56.477429528741709
      * CCSD total energy                     =  -56.489349275429468
      * CCSD(T) total energy                  =  -56.497848705844248
  @DF-RHF Final Energy:   -56.22394197931739
    Total Energy =                        -56.2239419793173880
  @DF-RHF Final Energy:   -56.20601475847054
    Total Energy =                        -56.2060147584705447
      * MP2 total energy                      =  -56.410048223643770
      * CCSD total energy                     =  -56.424667714671443
      * CCSD(T) total energy                  =  -56.430356219429449
  @DF-RHF Final Energy:   -56.22034301041430
    Total Energy =                        -56.2203430104142967
      * MP2 total energy                      =  -56.478986740957218
      * CCSD total energy                     =  -56.490778179222815
      * CCSD(T) total energy                  =  -56.499334418309161
  @DF-RHF Final Energy:   -76.06538601426193
    Total Energy =                        -76.0653860142619322
  @DF-RHF Final Energy:   -76.04125452874575
    Total Energy =                        -76.0412545287457533
      * MP2 total energy                      =  -76.264642699044003
      * CCSD total energy                     =  -76.272043135875450
      * CCSD(T) total energy                  =  -76.277446190899610
  @DF-RHF Final Energy:   -76.06011159417932
    Total Energy =                        -76.0601115941793324
      * MP2 total energy                      =  -76.345393282992902
      * CCSD total energy                     =  -76.349948232563705
      * CCSD(T) total energy                  =  -76.358816629890569
  @DF-RHF Final Energy:   -76.06535411667207
    Total Energy =                        -76.0653541166720828
  @DF-RHF Final Energy:   -76.04086103624329
    Total Energy =                        -76.0408610362432853
      * MP2 total energy                      =  -76.263303004821765
      * CCSD total energy                     =  -76.270779171602115
      * CCSD(T) total energy                  =  -76.276063548537266
  @DF-RHF Final Energy:   -76.05999197302135
    Total Energy =                        -76.0599919730213543
      * MP2 total energy                      =  -76.344013389964601
      * CCSD total energy                     =  -76.348562919784484
      * CCSD(T) total energy                  =  -76.357393922917609
  @DF-RHF Final Energy:  -132.27427546239048
    Total Energy =                       -132.2742754623904773
	 Opposite-Spin Energy      =      -0.4741140889134575 [Eh]
	 Correlation Energy        =      -0.6114929255812963 [Eh]
	 Total Energy              =    -132.8857683879717797 [Eh]

	 ================> DF-SCS-MP2 Energies <==================
	-----------------------------------------------------------
	 SCS Same-Spin Scale       =       0.3333333333333333 [-]
	 SCS Opposite-Spin Scale   =       1.2000000000000000 [-]
	 SCS Same-Spin Energy      =      -0.0457929455559463 [Eh]
	 SCS Opposite-Spin Energy  =      -0.5689369066961489 [Eh]
	 SCS Correlation Energy    =      -0.6147298522520952 [Eh]
	 SCS Total Energy          =    -132.8890053146425601 [Eh]
	-----------------------------------------------------------

  Multiplicity = 1
  Basis Set: AUG-CC-PVDZ
    Blend: AUG-CC-PVDZ
  Basis Set: (AUG-CC-PVDZ AUX)
    Blend: AUG-CC-PVDZ-JKFIT
  @DF-RHF Final Energy:  -132.23178180585347
    Total Energy =                       -132.2317818058534726
      * MP2 total energy                      = -132.664743767489426
      * CCSD total energy                     = -132.684640055551625
      * CCSD(T) total energy                  = -132.696539678083070
    Molecular point group: c1

    Geometry (in Angstrom), charge = 0, multiplicity = 1:

       Center              X                  Y                   Z               Mass
    ------------   -----------------  -----------------  -----------------  -----------------
         O            1.208896529801     0.088232221893     0.000051749105    15.994914619570
         H            1.573333529801    -0.797610778107     0.000098749105     1.007825032230
         H            0.250463529801    -0.056885778107    -0.000276250895     1.007825032230
         N           -1.175911470199    -0.046553778107    -0.000061250895    14.003074004430
         H           -1.647221470199    -0.400904778107     0.821870749105     1.007825032230
         H           -1.367109470199     0.946889221893    -0.025943250895     1.007825032230
         H           -1.657005470199    -0.444962778107    -0.795720250895     1.007825032230

  Charge       = 0
  Multiplicity = 1
  Basis Set: AUG-CC-PVTZ
    Blend: AUG-CC-PVTZ
  Basis Set: (AUG-CC-PVTZ AUX)
    Blend: AUG-CC-PVTZ-JKFIT

    Orbital Energies [Eh]
    ---------------------

    Doubly Occupied:

       1A    -20.484478     2A    -15.575236     3A     -1.291607
       4A     -1.188727     5A     -0.695452     6A     -0.669931
       7A     -0.659981     8A     -0.545866     9A     -0.440808
      10A     -0.439300

  @DF-RHF Final Energy:  -132.26535329943252

   => Energetics <=

    Nuclear Repulsion Energy =             43.0230739891948204
    One-Electron Energy =                -266.5940812000140454
    Two-Electron Energy =                  91.3056539113867132
    Total Energy =                       -132.2653532994325190

  Dipole Moment: [D]
     X:    -4.0098      Y:    -1.3659      Z:     0.0001     Total:     4.2361

      * MP2 total energy                      = -132.817030846065990
      * CCSD total energy                     = -132.831373718406468
      * CCSD(T) total energy                  = -132.849903897821633
*** Psi4 exiting successfully. Buy a developer a beer!
