                               Psi4 1.4a2.dev224

  ==> Input File <==

--------------------------------------------------------------------------
#Generated by lconvert.py for cbs job

memory 50 GB

molecule  {
0 1
  O       1.584936    0.104693    0.000005
  H       1.949373   -0.781150    0.000052
  H       0.626503   -0.040425   -0.000323
--
0 1
  N      -1.411176   -0.025665   -0.000016
  H      -1.882486   -0.380016    0.821916
  H      -1.602374    0.967778   -0.025898
  H      -1.892270   -0.424074   -0.795675
units angstrom
no_reorient
symmetry c1
}

set {
scf_type DF
mp2_type DF
e_convergence 7
reference rhf
}

energy(cbs, corl_wfn='mp2', corl_basis='aug-cc-pv[tq]z', delta_wfn='ccsd(t)', delta_basis='aug-cc-pv[dt]z', bsse_type='cp')
--------------------------------------------------------------------------

    Molecular point group: c1
  Charge       = 0
  Multiplicity = 1
  Basis Set: AUG-CC-PVQZ
    Blend: AUG-CC-PVQZ
  Basis Set: (AUG-CC-PVQZ AUX)
    Blend: AUG-CC-PVQZ-JKFIT
  @DF-RHF Final Energy:   -56.22391379987459
    Total Energy =                        -56.2239137998745946
  Basis Set: (AUG-CC-PVQZ AUX)
    Blend: AUG-CC-PVQZ-RI
	 Reference Energy          =     -56.2239137998745946 [Eh]
	 Singles Energy            =      -0.0000000000000000 [Eh]
	 Same-Spin Energy          =      -0.0593979124386926 [Eh]
	 Opposite-Spin Energy      =      -0.2247831605039891 [Eh]
	 Correlation Energy        =      -0.2841810729426817 [Eh]
	 Total Energy              =     -56.5080948728172743 [Eh]
	 SCS Total Energy          =     -56.5134528966256156 [Eh]
    Molecular point group: c1
  Basis Set: AUG-CC-PVDZ
    Blend: AUG-CC-PVDZ
  Basis Set: (AUG-CC-PVDZ AUX)
    Blend: AUG-CC-PVDZ-JKFIT
  @DF-RHF Final Energy:   -56.20535129751093
    Total Energy =                        -56.2053512975109300
      * MP2 total energy                      =  -56.407510719286400
      * CCSD total energy                     =  -56.422286043405187
      * CCSD(T) total energy                  =  -56.427783012612522
  @DF-RHF Final Energy:   -56.22026229478252
    Total Energy =                        -56.2202622947825219
      * MP2 total energy                      =  -56.477429528741695
      * CCSD total energy                     =  -56.489349275429468
      * CCSD(T) total energy                  =  -56.497848705844262
  @DF-RHF Final Energy:   -56.22393117693231
    Total Energy =                        -56.2239311769323109
  @DF-RHF Final Energy:   -56.20586483012890
    Total Energy =                        -56.2058648301289026
      * MP2 total energy                      =  -56.408810270218225
      * CCSD total energy                     =  -56.423508841718430
      * CCSD(T) total energy                  =  -56.429103471317219
  @DF-RHF Final Energy:   -56.22030098932404
    Total Energy =                        -56.2203009893240377
      * MP2 total energy                      =  -56.477993799109449
      * CCSD total energy                     =  -56.489879203840822
      * CCSD(T) total energy                  =  -56.498399619700123
  @DF-RHF Final Energy:   -76.06537328736439
    Total Energy =                        -76.0653732873643946
  @DF-RHF Final Energy:   -76.04097328062919
    Total Energy =                        -76.0409732806292027
      * MP2 total energy                      =  -76.263832751707611
      * CCSD total energy                     =  -76.271282667318857
      * CCSD(T) total energy                  =  -76.276629306122416
  @DF-RHF Final Energy:   -76.06004517070576
    Total Energy =                        -76.0600451707057630
      * MP2 total energy                      =  -76.344818158621422
      * CCSD total energy                     =  -76.349378827966618
      * CCSD(T) total energy                  =  -76.358231763183127
  @DF-RHF Final Energy:   -76.06535411666246
    Total Energy =                        -76.0653541166624620
  @DF-RHF Final Energy:   -76.04086103625126
    Total Energy =                        -76.0408610362512576
      * MP2 total energy                      =  -76.263303004822006
      * CCSD total energy                     =  -76.270779171602356
      * CCSD(T) total energy                  =  -76.276063548537508
  @DF-RHF Final Energy:   -76.05999197302059
    Total Energy =                        -76.0599919730205727
      * MP2 total energy                      =  -76.344013389964601
      * CCSD total energy                     =  -76.348562919784499
      * CCSD(T) total energy                  =  -76.357393922917623
  @DF-RHF Final Energy:  -132.29669033083215
    Total Energy =                       -132.2966903308321207
	 Opposite-Spin Energy      =      -0.4708523129053366 [Eh]
	 Correlation Energy        =      -0.6047811751575320 [Eh]
	 Total Energy              =    -132.9014715059896901 [Eh]

	 ================> DF-SCS-MP2 Energies <==================
	-----------------------------------------------------------
	 SCS Same-Spin Scale       =       0.3333333333333333 [-]
	 SCS Opposite-Spin Scale   =       1.2000000000000000 [-]
	 SCS Same-Spin Energy      =      -0.0446429540840651 [Eh]
	 SCS Opposite-Spin Energy  =      -0.5650227754864039 [Eh]
	 SCS Correlation Energy    =      -0.6096657295704691 [Eh]
	 SCS Total Energy          =    -132.9063560604026293 [Eh]
	-----------------------------------------------------------

  Multiplicity = 1
  Basis Set: AUG-CC-PVDZ
    Blend: AUG-CC-PVDZ
  Basis Set: (AUG-CC-PVDZ AUX)
    Blend: AUG-CC-PVDZ-JKFIT
  @DF-RHF Final Energy:  -132.25416238975646
    Total Energy =                       -132.2541623897564591
      * MP2 total energy                      = -132.681886572692491
      * CCSD total energy                     = -132.703459765579112
      * CCSD(T) total energy                  = -132.714764747136712
    Molecular point group: c1

    Geometry (in Angstrom), charge = 0, multiplicity = 1:

       Center              X                  Y                   Z               Mass
    ------------   -----------------  -----------------  -----------------  -----------------
         O            1.505964308715     0.086080401971     0.000007041013    15.994914619570
         H            1.870401308715    -0.799762598029     0.000054041013     1.007825032230
         H            0.547531308715    -0.059037598029    -0.000320958987     1.007825032230
         N           -1.490147691285    -0.044277598029    -0.000013958987    14.003074004430
         H           -1.961457691285    -0.398628598029     0.821918041013     1.007825032230
         H           -1.681345691285     0.949165401971    -0.025895958987     1.007825032230
         H           -1.971241691285    -0.442686598029    -0.795672958987     1.007825032230

  Charge       = 0
  Multiplicity = 1
  Basis Set: AUG-CC-PVTZ
    Blend: AUG-CC-PVTZ
  Basis Set: (AUG-CC-PVTZ AUX)
    Blend: AUG-CC-PVTZ-JKFIT

    Orbital Energies [Eh]
    ---------------------

    Doubly Occupied:

       1A    -20.527464     2A    -15.564386     3A     -1.313997
       4A     -1.168024     5A     -0.680759     6A     -0.651302
       7A     -0.649789     8A     -0.554134     9A     -0.472949
      10A     -0.456853

  @DF-RHF Final Energy:  -132.28771365784911

   => Energetics <=

    Nuclear Repulsion Energy =             38.5250674438792586
    One-Electron Energy =                -257.5462447802900101
    Two-Electron Energy =                  86.7334636785616340
    Total Energy =                       -132.2877136578491104

  Dipole Moment: [D]
     X:    -3.3039      Y:    -1.3598      Z:     0.0002     Total:     3.5728

      * MP2 total energy                      = -132.832763709952332
      * CCSD total energy                     = -132.848656631228806
      * CCSD(T) total energy                  = -132.866504067780852
*** Psi4 exiting successfully. Buy a developer a beer!
