                               Psi4 1.4a2.dev224

  ==> Input File <==

--------------------------------------------------------------------------
#Generated by lconvert.py for cbs job

memory 50 GB

molecule  {
0 1
  C      -2.024832    0.000026   -0.000005
  H      -2.390901   -0.618791   -0.813958
  H      -2.391452   -0.395615    0.942610
  H      -2.391756    1.014031   -0.128927
  H      -0.938772    0.000468    0.000287
--
0 1
  N       1.908409    0.000085   -0.000007
  H       2.301446    0.376298   -0.852831
  H       2.301500    0.550057    0.752545
  H       2.300069   -0.927198    0.100353
units angstrom
no_reorient
symmetry c1
}

set {
scf_type DF
mp2_type DF
e_convergence 7
reference rhf
}

energy(cbs, corl_wfn='mp2', corl_basis='aug-cc-pv[tq]z', delta_wfn='ccsd(t)', delta_basis='aug-cc-pv[dt]z', bsse_type='cp')
--------------------------------------------------------------------------

    Molecular point group: c1
  Charge       = 0
  Multiplicity = 1
  Basis Set: AUG-CC-PVQZ
    Blend: AUG-CC-PVQZ
  Basis Set: (AUG-CC-PVQZ AUX)
    Blend: AUG-CC-PVQZ-JKFIT
  @DF-RHF Final Energy:   -56.22388326465100
    Total Energy =                        -56.2238832646510005
  Basis Set: (AUG-CC-PVQZ AUX)
    Blend: AUG-CC-PVQZ-RI
	 Reference Energy          =     -56.2238832646510005 [Eh]
	 Singles Energy            =      -0.0000000000000000 [Eh]
	 Same-Spin Energy          =      -0.0594006358945432 [Eh]
	 Opposite-Spin Energy      =      -0.2247937129600995 [Eh]
	 Correlation Energy        =      -0.2841943488546427 [Eh]
	 Total Energy              =     -56.5080776135056411 [Eh]
	 SCS Total Energy          =     -56.5134359321679653 [Eh]
    Molecular point group: c1
  Basis Set: AUG-CC-PVDZ
    Blend: AUG-CC-PVDZ
  Basis Set: (AUG-CC-PVDZ AUX)
    Blend: AUG-CC-PVDZ-JKFIT
  @DF-RHF Final Energy:   -56.20532533609828
    Total Energy =                        -56.2053253360982836
      * MP2 total energy                      =  -56.407488952379069
      * CCSD total energy                     =  -56.422264544242140
      * CCSD(T) total energy                  =  -56.427763446511094
  @DF-RHF Final Energy:   -56.22023127991467
    Total Energy =                        -56.2202312799146711
      * MP2 total energy                      =  -56.477410774485683
      * CCSD total energy                     =  -56.489331834930972
      * CCSD(T) total energy                  =  -56.497832863451805
  @DF-RHF Final Energy:   -56.22389220682168
    Total Energy =                        -56.2238922068216738
  @DF-RHF Final Energy:   -56.20558936163767
    Total Energy =                        -56.2055893616376636
      * MP2 total energy                      =  -56.408103001063985
      * CCSD total energy                     =  -56.422844076326925
      * CCSD(T) total energy                  =  -56.428387392226604
  @DF-RHF Final Energy:   -56.22025441440925
    Total Energy =                        -56.2202544144092542
      * MP2 total energy                      =  -56.477612954526769
      * CCSD total energy                     =  -56.489522648382795
      * CCSD(T) total energy                  =  -56.498031637817576
  @DF-RHF Final Energy:   -40.21628817486521
    Total Energy =                        -40.2162881748652126
  @DF-RHF Final Energy:   -40.19966911728052
    Total Energy =                        -40.1996691172805214
      * MP2 total energy                      =  -40.370757536201253
      * CCSD total energy                     =  -40.393855513828385
      * CCSD(T) total energy                  =  -40.398387497940362
  @DF-RHF Final Energy:   -40.21366562352517
    Total Energy =                        -40.2136656235251593
      * MP2 total energy                      =  -40.433273584503901
      * CCSD total energy                     =  -40.453929091959985
      * CCSD(T) total energy                  =  -40.460642295937745
  @DF-RHF Final Energy:   -40.21628411544722
    Total Energy =                        -40.2162841154472233
  @DF-RHF Final Energy:   -40.19959388788371
    Total Energy =                        -40.1995938878837080
      * MP2 total energy                      =  -40.370480198541863
      * CCSD total energy                     =  -40.393599400729180
      * CCSD(T) total energy                  =  -40.398113465593156
  @DF-RHF Final Energy:   -40.21365373483788
    Total Energy =                        -40.2136537348378766
      * MP2 total energy                      =  -40.432966270742099
      * CCSD total energy                     =  -40.453613209988738
      * CCSD(T) total energy                  =  -40.460321324543692
  @DF-RHF Final Energy:   -96.44022970015970
    Total Energy =                        -96.4402297001597049
	 Opposite-Spin Energy      =      -0.4241126539810590 [Eh]
	 Correlation Energy        =      -0.5257033941419280 [Eh]
	 Total Energy              =     -96.9659330943016329 [Eh]

	 ================> DF-SCS-MP2 Energies <==================
	-----------------------------------------------------------
	 SCS Same-Spin Scale       =       0.3333333333333333 [-]
	 SCS Opposite-Spin Scale   =       1.2000000000000000 [-]
	 SCS Same-Spin Energy      =      -0.0338635800536230 [Eh]
	 SCS Opposite-Spin Energy  =      -0.5089351847772708 [Eh]
	 SCS Correlation Energy    =      -0.5427987648308938 [Eh]
	 SCS Total Energy          =     -96.9830284649905963 [Eh]
	-----------------------------------------------------------

  Multiplicity = 1
  Basis Set: AUG-CC-PVDZ
    Blend: AUG-CC-PVDZ
  Basis Set: (AUG-CC-PVDZ AUX)
    Blend: AUG-CC-PVDZ-JKFIT
  @DF-RHF Final Energy:   -96.40532185086707
    Total Energy =                        -96.4053218508670682
      * MP2 total energy                      =  -96.779793494468095
      * CCSD total energy                     =  -96.817545135003201
      * CCSD(T) total energy                  =  -96.827770861780778
    Molecular point group: c1

    Geometry (in Angstrom), charge = 0, multiplicity = 1:

       Center              X                  Y                   Z               Mass
    ------------   -----------------  -----------------  -----------------  -----------------
         C           -2.061321827541     0.000003421625    -0.000002628299    12.000000000000
         H           -2.427390827541    -0.618813578375    -0.813955628299     1.007825032230
         H           -2.427941827541    -0.395637578375     0.942612371701     1.007825032230
         H           -2.428245827541     1.014008421625    -0.128924628299     1.007825032230
         H           -0.975261827541     0.000445421625     0.000289371701     1.007825032230
         N            1.871919172459     0.000062421625    -0.000004628299    14.003074004430
         H            2.264956172459     0.376275421625    -0.852828628299     1.007825032230
         H            2.265010172459     0.550034421625     0.752547371701     1.007825032230
         H            2.263579172459    -0.927220578375     0.100355371701     1.007825032230

  Charge       = 0
  Multiplicity = 1
  Basis Set: AUG-CC-PVTZ
    Blend: AUG-CC-PVTZ
  Basis Set: (AUG-CC-PVTZ AUX)
    Blend: AUG-CC-PVTZ-JKFIT

    Orbital Energies [Eh]
    ---------------------

    Doubly Occupied:

       1A    -15.544087     2A    -11.187643     3A     -1.146705
       4A     -0.927471     5A     -0.630095     6A     -0.630075
       7A     -0.529618     8A     -0.529612     9A     -0.528747
      10A     -0.433867

  @DF-RHF Final Energy:   -96.43396640150269

   => Energetics <=

    Nuclear Repulsion Energy =             38.5170306466198440
    One-Electron Energy =                -205.7261502719318855
    Two-Electron Energy =                  70.7751532238093546
    Total Energy =                        -96.4339664015026869

  Dipole Moment: [D]
     X:     1.9107      Y:    -0.0015      Z:     0.0001     Total:     1.9107

      * MP2 total energy                      =  -96.911950614151905
      * CCSD total energy                     =  -96.944419947545299
      * CCSD(T) total energy                  =  -96.959820598774783
*** Psi4 exiting successfully. Buy a developer a beer!
