                               Psi4 1.4a2.dev224

  ==> Input File <==

--------------------------------------------------------------------------
#Generated by lconvert.py for cbs job

memory 50 GB

molecule  {
0 1
  C      -2.024832    0.000026   -0.000005
  H      -2.390901   -0.618791   -0.813958
  H      -2.391452   -0.395615    0.942610
  H      -2.391756    1.014031   -0.128927
  H      -0.938772    0.000468    0.000287
--
0 1
  N       1.054255    0.000200    0.000081
  H       1.447292    0.376413   -0.852743
  H       1.447346    0.550172    0.752633
  H       1.445915   -0.927083    0.100441
units angstrom
no_reorient
symmetry c1
}

set {
scf_type DF
mp2_type DF
e_convergence 7
reference rhf
}

energy(cbs, corl_wfn='mp2', corl_basis='aug-cc-pv[tq]z', delta_wfn='ccsd(t)', delta_basis='aug-cc-pv[dt]z', bsse_type='cp')
--------------------------------------------------------------------------

    Molecular point group: c1
  Charge       = 0
  Multiplicity = 1
  Basis Set: AUG-CC-PVQZ
    Blend: AUG-CC-PVQZ
  Basis Set: (AUG-CC-PVQZ AUX)
    Blend: AUG-CC-PVQZ-JKFIT
  @DF-RHF Final Energy:   -56.22388326462804
    Total Energy =                        -56.2238832646280358
  Basis Set: (AUG-CC-PVQZ AUX)
    Blend: AUG-CC-PVQZ-RI
	 Reference Energy          =     -56.2238832646280358 [Eh]
	 Singles Energy            =      -0.0000000000000000 [Eh]
	 Same-Spin Energy          =      -0.0594006358945657 [Eh]
	 Opposite-Spin Energy      =      -0.2247937129601299 [Eh]
	 Correlation Energy        =      -0.2841943488546956 [Eh]
	 Total Energy              =     -56.5080776134827332 [Eh]
	 SCS Total Energy          =     -56.5134359321450503 [Eh]
    Molecular point group: c1
  Basis Set: AUG-CC-PVDZ
    Blend: AUG-CC-PVDZ
  Basis Set: (AUG-CC-PVDZ AUX)
    Blend: AUG-CC-PVDZ-JKFIT
  @DF-RHF Final Energy:   -56.20532533609365
    Total Energy =                        -56.2053253360936509
      * MP2 total energy                      =  -56.407488952378920
      * CCSD total energy                     =  -56.422264544241983
      * CCSD(T) total energy                  =  -56.427763446510930
  @DF-RHF Final Energy:   -56.22023127991856
    Total Energy =                        -56.2202312799185648
      * MP2 total energy                      =  -56.477410774485755
      * CCSD total energy                     =  -56.489331834931093
      * CCSD(T) total energy                  =  -56.497832863451933
  @DF-RHF Final Energy:   -56.22390529937034
    Total Energy =                        -56.2239052993703368
  @DF-RHF Final Energy:   -56.20595895200662
    Total Energy =                        -56.2059589520066183
      * MP2 total energy                      =  -56.409152686704900
      * CCSD total energy                     =  -56.423834828696933
      * CCSD(T) total energy                  =  -56.429461840102618
  @DF-RHF Final Energy:   -56.22028253180973
    Total Energy =                        -56.2202825318097297
      * MP2 total energy                      =  -56.478172276152030
      * CCSD total energy                     =  -56.490054440609931
      * CCSD(T) total energy                  =  -56.498582608216566
  @DF-RHF Final Energy:   -40.21629385840522
    Total Energy =                        -40.2162938584052156
  @DF-RHF Final Energy:   -40.19976898371272
    Total Energy =                        -40.1997689837127155
      * MP2 total energy                      =  -40.371081608509051
      * CCSD total energy                     =  -40.394152893501484
      * CCSD(T) total energy                  =  -40.398703973419011
  @DF-RHF Final Energy:   -40.21367779645713
    Total Energy =                        -40.2136777964571266
      * MP2 total energy                      =  -40.433606392945137
      * CCSD total energy                     =  -40.454259050236786
      * CCSD(T) total energy                  =  -40.460979814852983
  @DF-RHF Final Energy:   -40.21628411544003
    Total Energy =                        -40.2162841154400326
  @DF-RHF Final Energy:   -40.19959388788634
    Total Energy =                        -40.1995938878863370
      * MP2 total energy                      =  -40.370480198541763
      * CCSD total energy                     =  -40.393599400729080
      * CCSD(T) total energy                  =  -40.398113465593042
  @DF-RHF Final Energy:   -40.21365373485246
    Total Energy =                        -40.2136537348524641
      * MP2 total energy                      =  -40.432966270741915
      * CCSD total energy                     =  -40.453613209988447
      * CCSD(T) total energy                  =  -40.460321324543393
  @DF-RHF Final Energy:   -96.43049491970966
    Total Energy =                        -96.4304949197096590
	 Opposite-Spin Energy      =      -0.4261767946868852 [Eh]
	 Correlation Energy        =      -0.5297127386143098 [Eh]
	 Total Energy              =     -96.9602076583239665 [Eh]

	 ================> DF-SCS-MP2 Energies <==================
	-----------------------------------------------------------
	 SCS Same-Spin Scale       =       0.3333333333333333 [-]
	 SCS Opposite-Spin Scale   =       1.2000000000000000 [-]
	 SCS Same-Spin Energy      =      -0.0345119813091415 [Eh]
	 SCS Opposite-Spin Energy  =      -0.5114121536242623 [Eh]
	 SCS Correlation Energy    =      -0.5459241349334039 [Eh]
	 SCS Total Energy          =     -96.9764190546430598 [Eh]
	-----------------------------------------------------------

  Multiplicity = 1
  Basis Set: AUG-CC-PVDZ
    Blend: AUG-CC-PVDZ
  Basis Set: (AUG-CC-PVDZ AUX)
    Blend: AUG-CC-PVDZ-JKFIT
  @DF-RHF Final Energy:   -96.39594217652193
    Total Energy =                        -96.3959421765219275
      * MP2 total energy                      =  -96.773857648518572
      * CCSD total energy                     =  -96.810959489545723
      * CCSD(T) total energy                  =  -96.821663475418276
    Molecular point group: c1

    Geometry (in Angstrom), charge = 0, multiplicity = 1:

       Center              X                  Y                   Z               Mass
    ------------   -----------------  -----------------  -----------------  -----------------
         C           -1.621387126414    -0.000055809486    -0.000047952975    12.000000000000
         H           -1.987456126414    -0.618872809486    -0.814000952975     1.007825032230
         H           -1.988007126414    -0.395696809486     0.942567047025     1.007825032230
         H           -1.988311126414     1.013949190514    -0.128969952975     1.007825032230
         H           -0.535327126414     0.000386190514     0.000244047025     1.007825032230
         N            1.457699873586     0.000118190514     0.000038047025    14.003074004430
         H            1.850736873586     0.376331190514    -0.852785952975     1.007825032230
         H            1.850790873586     0.550090190514     0.752590047025     1.007825032230
         H            1.849359873586    -0.927164809486     0.100398047025     1.007825032230

  Charge       = 0
  Multiplicity = 1
  Basis Set: AUG-CC-PVTZ
    Blend: AUG-CC-PVTZ
  Basis Set: (AUG-CC-PVTZ AUX)
    Blend: AUG-CC-PVTZ-JKFIT

    Orbital Energies [Eh]
    ---------------------

    Doubly Occupied:

       1A    -15.545309     2A    -11.167848     3A     -1.153033
       4A     -0.914196     5A     -0.635212     6A     -0.635191
       7A     -0.536852     8A     -0.516497     9A     -0.516491
      10A     -0.418566

  @DF-RHF Final Energy:   -96.42423162508918

   => Energetics <=

    Nuclear Repulsion Energy =             42.0612929057919445
    One-Electron Energy =                -212.8926550286317365
    Two-Electron Energy =                  74.4071304977506003
    Total Energy =                        -96.4242316250891776

  Dipole Moment: [D]
     X:     2.3057      Y:    -0.0013      Z:     0.0001     Total:     2.3057

      * MP2 total energy                      =  -96.906442698338623
      * CCSD total energy                     =  -96.938322390612896
      * CCSD(T) total energy                  =  -96.954236949264470
*** Psi4 exiting successfully. Buy a developer a beer!
