                               Psi4 1.4a2.dev224

  ==> Input File <==

--------------------------------------------------------------------------
#Generated by lconvert.py for cbs job

memory 50 GB

molecule  {
0 1
  C       1.433269    0.673524    0.000073
  H       2.314586    1.298682   -0.000899
  H       0.472719    1.168203    0.001068
  C       1.527249   -0.655288    0.000045
  H       0.645879   -1.280297    0.001018
  H       2.487496   -1.150703   -0.000951
--
0 1
  C      -2.368211   -0.014735   -0.000096
  H      -2.658782    1.031316   -0.000229
  H      -1.778208   -0.226141   -0.886633
  H      -1.779154   -0.226176    0.887064
  H      -3.258376   -0.635889   -0.000575
units angstrom
no_reorient
symmetry c1
}

set {
scf_type DF
mp2_type DF
e_convergence 7
reference rhf
}

energy(cbs, corl_wfn='mp2', corl_basis='aug-cc-pv[tq]z', delta_wfn='ccsd(t)', delta_basis='aug-cc-pv[dt]z', bsse_type='cp')
--------------------------------------------------------------------------

    Molecular point group: c1
  Charge       = 0
  Multiplicity = 1
  Basis Set: AUG-CC-PVQZ
    Blend: AUG-CC-PVQZ
  Basis Set: (AUG-CC-PVQZ AUX)
    Blend: AUG-CC-PVQZ-JKFIT
  @DF-RHF Final Energy:   -40.21630136705414
    Total Energy =                        -40.2163013670541289
  Basis Set: (AUG-CC-PVQZ AUX)
    Blend: AUG-CC-PVQZ-RI
	 Reference Energy          =     -40.2163013670541361 [Eh]
	 Singles Energy            =      -0.0000000000000000 [Eh]
	 Same-Spin Energy          =      -0.0416051363825650 [Eh]
	 Opposite-Spin Energy      =      -0.1986591541880794 [Eh]
	 Correlation Energy        =      -0.2402642905706445 [Eh]
	 Total Energy              =     -40.4565656576247790 [Eh]
	 SCS Total Energy          =     -40.4685607308740174 [Eh]
    Molecular point group: c1
  Basis Set: AUG-CC-PVDZ
    Blend: AUG-CC-PVDZ
  Basis Set: (AUG-CC-PVDZ AUX)
    Blend: AUG-CC-PVDZ-JKFIT
  @DF-RHF Final Energy:   -40.19959369504289
    Total Energy =                        -40.1995936950428856
      * MP2 total energy                      =  -40.370462587169413
      * CCSD total energy                     =  -40.393575481268151
      * CCSD(T) total energy                  =  -40.398086816894761
  @DF-RHF Final Energy:   -40.21366982181976
    Total Energy =                        -40.2136698218197637
      * MP2 total energy                      =  -40.432976861189623
      * CCSD total energy                     =  -40.453619328464299
      * CCSD(T) total energy                  =  -40.460324363205160
  @DF-RHF Final Energy:   -40.21631183929674
    Total Energy =                        -40.2163118392967363
  @DF-RHF Final Energy:   -40.19981721139454
    Total Energy =                        -40.1998172113945387
      * MP2 total energy                      =  -40.371094486185683
      * CCSD total energy                     =  -40.394165689970635
      * CCSD(T) total energy                  =  -40.398711176503653
  @DF-RHF Final Energy:   -40.21368733919248
    Total Energy =                        -40.2136873391924752
      * MP2 total energy                      =  -40.433383658238398
      * CCSD total energy                     =  -40.454023811674162
      * CCSD(T) total energy                  =  -40.460738861220904
  @DF-RHF Final Energy:   -78.06945874840613
    Total Energy =                        -78.0694587484061344
  @DF-RHF Final Energy:   -78.04367248522608
    Total Energy =                        -78.0436724852260681
      * MP2 total energy                      =  -78.334255878083624
      * CCSD total energy                     =  -78.362957209848034
      * CCSD(T) total energy                  =  -78.374195197877455
  @DF-RHF Final Energy:   -78.06475873119297
    Total Energy =                        -78.0647587311929669
      * MP2 total energy                      =  -78.440398774860839
      * CCSD total energy                     =  -78.465376064301154
      * CCSD(T) total energy                  =  -78.481272600712472
  @DF-RHF Final Energy:   -78.06945096201741
    Total Energy =                        -78.0694509620174131
  @DF-RHF Final Energy:   -78.04353007135190
    Total Energy =                        -78.0435300713518814
      * MP2 total energy                      =  -78.333724794806670
      * CCSD total energy                     =  -78.362466631719784
      * CCSD(T) total energy                  =  -78.373668512610934
  @DF-RHF Final Energy:   -78.06473669577562
    Total Energy =                        -78.0647366957756219
      * MP2 total energy                      =  -78.439910491201630
      * CCSD total energy                     =  -78.464892077855865
      * CCSD(T) total energy                  =  -78.480775500914206
  @DF-RHF Final Energy:  -118.28509886314646
    Total Energy =                       -118.2850988631464588
	 Opposite-Spin Energy      =      -0.5338366096543326 [Eh]
	 Correlation Energy        =      -0.6578621581721666 [Eh]
	 Total Energy              =    -118.9429610213186237 [Eh]

	 ================> DF-SCS-MP2 Energies <==================
	-----------------------------------------------------------
	 SCS Same-Spin Scale       =       0.3333333333333333 [-]
	 SCS Opposite-Spin Scale   =       1.2000000000000000 [-]
	 SCS Same-Spin Energy      =      -0.0413418495059447 [Eh]
	 SCS Opposite-Spin Energy  =      -0.6406039315851990 [Eh]
	 SCS Correlation Energy    =      -0.6819457810911438 [Eh]
	 SCS Total Energy          =    -118.9670446442376033 [Eh]
	-----------------------------------------------------------

  Multiplicity = 1
  Basis Set: AUG-CC-PVDZ
    Blend: AUG-CC-PVDZ
  Basis Set: (AUG-CC-PVDZ AUX)
    Blend: AUG-CC-PVDZ-JKFIT
  @DF-RHF Final Energy:  -118.24281729270744
    Total Energy =                       -118.2428172927074428
      * MP2 total energy                      = -118.706439454660597
      * CCSD total energy                     = -118.757977428665669
      * CCSD(T) total energy                  = -118.773998723602048
    Molecular point group: c1

    Geometry (in Angstrom), charge = 0, multiplicity = 1:

       Center              X                  Y                   Z               Mass
    ------------   -----------------  -----------------  -----------------  -----------------
         C            1.353245690735     0.673050976731     0.000070142067    12.000000000000
         H            2.234562690735     1.298208976731    -0.000901857933     1.007825032230
         H            0.392695690735     1.167729976731     0.001065142067     1.007825032230
         C            1.447225690735    -0.655761023269     0.000042142067    12.000000000000
         H            0.565855690735    -1.280770023269     0.001015142067     1.007825032230
         H            2.407472690735    -1.151176023269    -0.000953857933     1.007825032230
         C           -2.448234309265    -0.015208023269    -0.000098857933    12.000000000000
         H           -2.738805309265     1.030842976731    -0.000231857933     1.007825032230
         H           -1.858231309265    -0.226614023269    -0.886635857933     1.007825032230
         H           -1.859177309265    -0.226649023269     0.887061142067     1.007825032230
         H           -3.338399309265    -0.636362023269    -0.000577857933     1.007825032230

  Charge       = 0
  Multiplicity = 1
  Basis Set: AUG-CC-PVTZ
    Blend: AUG-CC-PVTZ
  Basis Set: (AUG-CC-PVTZ AUX)
    Blend: AUG-CC-PVTZ-JKFIT

    Orbital Energies [Eh]
    ---------------------

    Doubly Occupied:

       1A    -11.230194     2A    -11.228467     3A    -11.206702
       4A     -1.034255     5A     -0.946389     6A     -0.792780
       7A     -0.645215     8A     -0.587300     9A     -0.547828
      10A     -0.547772    11A     -0.546756    12A     -0.507759
      13A     -0.376543

  @DF-RHF Final Energy:  -118.27777342059584

   => Energetics <=

    Nuclear Repulsion Energy =             68.6208670550780511
    One-Electron Energy =                -293.4013608313359782
    Two-Electron Energy =                 106.5027203556620776
    Total Energy =                       -118.2777734205958353

  Dipole Moment: [D]
     X:    -0.0361      Y:     0.0010      Z:    -0.0001     Total:     0.0361

      * MP2 total energy                      = -118.875089547983777
      * CCSD total energy                     = -118.920430947366881
      * CCSD(T) total energy                  = -118.943331608871659
*** Psi4 exiting successfully. Buy a developer a beer!
