                               Psi4 1.4a2.dev224

  ==> Input File <==

--------------------------------------------------------------------------
#Generated by lconvert.py for cbs job

memory 50 GB

molecule  {
0 1
  C       1.433269    0.673524    0.000073
  H       2.314586    1.298682   -0.000899
  H       0.472719    1.168203    0.001068
  C       1.527249   -0.655288    0.000045
  H       0.645879   -1.280297    0.001018
  H       2.487496   -1.150703   -0.000951
--
0 1
  C      -1.412031    0.054295    0.260100
  H      -1.702602    1.100346    0.259967
  H      -0.822028   -0.157111   -0.626437
  H      -0.822974   -0.157146    1.147260
  H      -2.302196   -0.566859    0.259621
units angstrom
no_reorient
symmetry c1
}

set {
scf_type DF
mp2_type DF
e_convergence 7
reference rhf
}

energy(cbs, corl_wfn='mp2', corl_basis='aug-cc-pv[tq]z', delta_wfn='ccsd(t)', delta_basis='aug-cc-pv[dt]z', bsse_type='cp')
--------------------------------------------------------------------------

    Molecular point group: c1
  Charge       = 0
  Multiplicity = 1
  Basis Set: AUG-CC-PVQZ
    Blend: AUG-CC-PVQZ
  Basis Set: (AUG-CC-PVQZ AUX)
    Blend: AUG-CC-PVQZ-JKFIT
  @DF-RHF Final Energy:   -40.21630136705400
    Total Energy =                        -40.2163013670540010
  Basis Set: (AUG-CC-PVQZ AUX)
    Blend: AUG-CC-PVQZ-RI
	 Reference Energy          =     -40.2163013670540010 [Eh]
	 Singles Energy            =      -0.0000000000000000 [Eh]
	 Same-Spin Energy          =      -0.0416051363825664 [Eh]
	 Opposite-Spin Energy      =      -0.1986591541880858 [Eh]
	 Correlation Energy        =      -0.2402642905706522 [Eh]
	 Total Energy              =     -40.4565656576246511 [Eh]
	 SCS Total Energy          =     -40.4685607308738895 [Eh]
    Molecular point group: c1
  Basis Set: AUG-CC-PVDZ
    Blend: AUG-CC-PVDZ
  Basis Set: (AUG-CC-PVDZ AUX)
    Blend: AUG-CC-PVDZ-JKFIT
  @DF-RHF Final Energy:   -40.19959369505577
    Total Energy =                        -40.1995936950557748
      * MP2 total energy                      =  -40.370462587169492
      * CCSD total energy                     =  -40.393575481268243
      * CCSD(T) total energy                  =  -40.398086816894860
  @DF-RHF Final Energy:   -40.21366982182013
    Total Energy =                        -40.2136698218201332
      * MP2 total energy                      =  -40.432976861190305
      * CCSD total energy                     =  -40.453619328465230
      * CCSD(T) total energy                  =  -40.460324363206155
  @DF-RHF Final Energy:   -40.21632244213708
    Total Energy =                        -40.2163224421370771
  @DF-RHF Final Energy:   -40.20014137033884
    Total Energy =                        -40.2001413703388408
      * MP2 total energy                      =  -40.371898315666918
      * CCSD total energy                     =  -40.394912249358235
      * CCSD(T) total energy                  =  -40.399496712242438
  @DF-RHF Final Energy:   -40.21370267514167
    Total Energy =                        -40.2137026751416684
      * MP2 total energy                      =  -40.433859324263828
      * CCSD total energy                     =  -40.454467727254070
      * CCSD(T) total energy                  =  -40.461198972112300
  @DF-RHF Final Energy:   -78.06947042614956
    Total Energy =                        -78.0694704261495644
  @DF-RHF Final Energy:   -78.04379053384537
    Total Energy =                        -78.0437905338453675
      * MP2 total energy                      =  -78.335043778332050
      * CCSD total energy                     =  -78.363673939558197
      * CCSD(T) total energy                  =  -78.374982197160492
  @DF-RHF Final Energy:   -78.06478920799879
    Total Energy =                        -78.0647892079987855
      * MP2 total energy                      =  -78.441052311962963
      * CCSD total energy                     =  -78.465993340860777
      * CCSD(T) total energy                  =  -78.481912573170121
  @DF-RHF Final Energy:   -78.06945096208806
    Total Energy =                        -78.0694509620880552
  @DF-RHF Final Energy:   -78.04353007126346
    Total Energy =                        -78.0435300712634614
      * MP2 total energy                      =  -78.333724794808418
      * CCSD total energy                     =  -78.362466631721972
      * CCSD(T) total energy                  =  -78.373668512613335
  @DF-RHF Final Energy:   -78.06473669580529
    Total Energy =                        -78.0647366958052942
      * MP2 total energy                      =  -78.439910491201445
      * CCSD total energy                     =  -78.464892077856007
      * CCSD(T) total energy                  =  -78.480775500914291
  @DF-RHF Final Energy:  -118.26725355667199
    Total Energy =                       -118.2672535566719887
	 Opposite-Spin Energy      =      -0.5384724741002218 [Eh]
	 Correlation Energy        =      -0.6661549854760320 [Eh]
	 Total Energy              =    -118.9334085421480154 [Eh]

	 ================> DF-SCS-MP2 Energies <==================
	-----------------------------------------------------------
	 SCS Same-Spin Scale       =       0.3333333333333333 [-]
	 SCS Opposite-Spin Scale   =       1.2000000000000000 [-]
	 SCS Same-Spin Energy      =      -0.0425608371252700 [Eh]
	 SCS Opposite-Spin Energy  =      -0.6461669689202661 [Eh]
	 SCS Correlation Energy    =      -0.6887278060455362 [Eh]
	 SCS Total Energy          =    -118.9559813627175231 [Eh]
	-----------------------------------------------------------

  Multiplicity = 1
  Basis Set: AUG-CC-PVDZ
    Blend: AUG-CC-PVDZ
  Basis Set: (AUG-CC-PVDZ AUX)
    Blend: AUG-CC-PVDZ-JKFIT
  @DF-RHF Final Energy:  -118.22508980796006
    Total Energy =                       -118.2250898079600603
      * MP2 total energy                      = -118.695647349989613
      * CCSD total energy                     = -118.745987581690258
      * CCSD(T) total energy                  = -118.762780130621636
    Molecular point group: c1

    Geometry (in Angstrom), charge = 0, multiplicity = 1:

       Center              X                  Y                   Z               Mass
    ------------   -----------------  -----------------  -----------------  -----------------
         C            1.005358628519     0.647935785131    -0.094596993870    12.000000000000
         H            1.886675628519     1.273093785131    -0.095568993870     1.007825032230
         H            0.044808628519     1.142614785131    -0.093601993870     1.007825032230
         C            1.099338628519    -0.680876214869    -0.094624993870    12.000000000000
         H            0.217968628519    -1.305885214869    -0.093651993870     1.007825032230
         H            2.059585628519    -1.176291214869    -0.095620993870     1.007825032230
         C           -1.839941371481     0.028706785131     0.165430006130    12.000000000000
         H           -2.130512371481     1.074757785131     0.165297006130     1.007825032230
         H           -1.249938371481    -0.182699214869    -0.721106993870     1.007825032230
         H           -1.250884371481    -0.182734214869     1.052590006130     1.007825032230
         H           -2.730106371481    -0.592447214869     0.164951006130     1.007825032230

  Charge       = 0
  Multiplicity = 1
  Basis Set: AUG-CC-PVTZ
    Blend: AUG-CC-PVTZ
  Basis Set: (AUG-CC-PVTZ AUX)
    Blend: AUG-CC-PVTZ-JKFIT

    Orbital Energies [Eh]
    ---------------------

    Doubly Occupied:

       1A    -11.226420     2A    -11.224535     3A    -11.202603
       4A     -1.037091     5A     -0.947224     6A     -0.792572
       7A     -0.654579     8A     -0.586958     9A     -0.555083
      10A     -0.550253    11A     -0.530513    12A     -0.500710
      13A     -0.374061

  @DF-RHF Final Energy:  -118.25993408447322

   => Energetics <=

    Nuclear Repulsion Energy =             75.2726534072370725
    One-Electron Energy =                -306.6999709140329173
    Two-Electron Energy =                 113.1673834223226294
    Total Energy =                       -118.2599340844732154

  Dipole Moment: [D]
     X:    -0.0439      Y:     0.0048      Z:     0.0295     Total:     0.0531

      * MP2 total energy                      = -118.865659871523334
      * CCSD total energy                     = -118.909737017099886
      * CCSD(T) total energy                  = -118.933567600724317
*** Psi4 exiting successfully. Buy a developer a beer!
