                               Psi4 1.4a2.dev224

  ==> Input File <==

--------------------------------------------------------------------------
#Generated by lconvert.py for cbs job

memory 50 GB

molecule  {
0 1
  C      -1.635465   -0.589711    0.000260
  C      -1.253728    0.687369   -0.000208
  H      -1.799159   -1.127792   -0.922423
  H      -1.798092   -1.127434    0.923341
  H      -1.091053    1.226753    0.921740
  H      -1.092108    1.226265   -0.922626
--
0 1
  N       2.333571    0.037163   -0.000423
  H       2.716944   -0.433027    0.809035
  H       1.342911   -0.171803   -0.001865
  H       2.720722   -0.439054   -0.804554
units angstrom
no_reorient
symmetry c1
}

set {
scf_type DF
mp2_type DF
e_convergence 7
reference rhf
}

energy(cbs, corl_wfn='mp2', corl_basis='aug-cc-pv[tq]z', delta_wfn='ccsd(t)', delta_basis='aug-cc-pv[dt]z', bsse_type='cp')
--------------------------------------------------------------------------

    Molecular point group: c1
  Charge       = 0
  Multiplicity = 1
  Basis Set: AUG-CC-PVQZ
    Blend: AUG-CC-PVQZ
  Basis Set: (AUG-CC-PVQZ AUX)
    Blend: AUG-CC-PVQZ-JKFIT
  @DF-RHF Final Energy:   -56.22387392941681
    Total Energy =                        -56.2238739294168113
  Basis Set: (AUG-CC-PVQZ AUX)
    Blend: AUG-CC-PVQZ-RI
	 Reference Energy          =     -56.2238739294168113 [Eh]
	 Singles Energy            =      -0.0000000000000000 [Eh]
	 Same-Spin Energy          =      -0.0594016593066986 [Eh]
	 Opposite-Spin Energy      =      -0.2248019796171183 [Eh]
	 Correlation Energy        =      -0.2842036389238169 [Eh]
	 Total Energy              =     -56.5080775683406316 [Eh]
	 SCS Total Energy          =     -56.5134368580595847 [Eh]
    Molecular point group: c1
  Basis Set: AUG-CC-PVDZ
    Blend: AUG-CC-PVDZ
  Basis Set: (AUG-CC-PVDZ AUX)
    Blend: AUG-CC-PVDZ-JKFIT
  @DF-RHF Final Energy:   -56.20532167860358
    Total Energy =                        -56.2053216786035819
      * MP2 total energy                      =  -56.407502844424243
      * CCSD total energy                     =  -56.422279826912543
      * CCSD(T) total energy                  =  -56.427780420022870
  @DF-RHF Final Energy:   -56.22022295529497
    Total Energy =                        -56.2202229552949717
      * MP2 total energy                      =  -56.477412671437492
      * CCSD total energy                     =  -56.489333414448858
      * CCSD(T) total energy                  =  -56.497836774310684
  @DF-RHF Final Energy:   -56.22388047640504
    Total Energy =                        -56.2238804764050357
  @DF-RHF Final Energy:   -56.20542801638189
    Total Energy =                        -56.2054280163818873
      * MP2 total energy                      =  -56.407911038439757
      * CCSD total energy                     =  -56.422655948922795
      * CCSD(T) total energy                  =  -56.428192151181399
  @DF-RHF Final Energy:   -56.22024674272583
    Total Energy =                        -56.2202467427258341
      * MP2 total energy                      =  -56.477854563582760
      * CCSD total energy                     =  -56.489774683282491
      * CCSD(T) total energy                  =  -56.498289220631619
  @DF-RHF Final Energy:   -78.06943653662468
    Total Energy =                        -78.0694365366246927
  @DF-RHF Final Energy:   -78.04376524932364
    Total Energy =                        -78.0437652493236556
      * MP2 total energy                      =  -78.334730615197358
      * CCSD total energy                     =  -78.363429946910031
      * CCSD(T) total energy                  =  -78.374743285690215
  @DF-RHF Final Energy:   -78.06476741426420
    Total Energy =                        -78.0647674142641961
      * MP2 total energy                      =  -78.440546307501691
      * CCSD total energy                     =  -78.465512944100681
      * CCSD(T) total energy                  =  -78.481428597566094
  @DF-RHF Final Energy:   -78.06941922840727
    Total Energy =                        -78.0694192284072699
  @DF-RHF Final Energy:   -78.04351759118283
    Total Energy =                        -78.0435175911828338
      * MP2 total energy                      =  -78.333757200446286
      * CCSD total energy                     =  -78.362504496867743
      * CCSD(T) total energy                  =  -78.373716079305979
  @DF-RHF Final Energy:   -78.06470652709405
    Total Energy =                        -78.0647065270940459
      * MP2 total energy                      =  -78.439899533399796
      * CCSD total energy                     =  -78.464883408190246
      * CCSD(T) total energy                  =  -78.480777493298731
  @DF-RHF Final Energy:  -134.29355449535990
    Total Energy =                       -134.2935544953598992
	 Opposite-Spin Energy      =      -0.5599873033974841 [Eh]
	 Correlation Energy        =      -0.7018692332170802 [Eh]
	 Total Energy              =    -134.9954237285769807 [Eh]

	 ================> DF-SCS-MP2 Energies <==================
	-----------------------------------------------------------
	 SCS Same-Spin Scale       =       0.3333333333333333 [-]
	 SCS Opposite-Spin Scale   =       1.2000000000000000 [-]
	 SCS Same-Spin Energy      =      -0.0472939766065320 [Eh]
	 SCS Opposite-Spin Energy  =      -0.6719847640769809 [Eh]
	 SCS Correlation Energy    =      -0.7192787406835129 [Eh]
	 SCS Total Energy          =    -135.0128332360434058 [Eh]
	-----------------------------------------------------------

  Multiplicity = 1
  Basis Set: AUG-CC-PVDZ
    Blend: AUG-CC-PVDZ
  Basis Set: (AUG-CC-PVDZ AUX)
    Blend: AUG-CC-PVDZ-JKFIT
  @DF-RHF Final Energy:  -134.24941200358771
    Total Energy =                       -134.2494120035877074
      * MP2 total energy                      = -134.744596774640939
      * CCSD total energy                     = -134.787606642723972
      * CCSD(T) total energy                  = -134.804710219867360
    Molecular point group: c1

    Geometry (in Angstrom), charge = 0, multiplicity = 1:

       Center              X                  Y                   Z               Mass
    ------------   -----------------  -----------------  -----------------  -----------------
         C           -1.613600723611    -0.608344369244     0.000318382272    12.000000000000
         C           -1.231863723611     0.668735630756    -0.000149617728    12.000000000000
         H           -1.777294723611    -1.146425369244    -0.922364617728     1.007825032230
         H           -1.776227723611    -1.146067369244     0.923399382272     1.007825032230
         H           -1.069188723611     1.208119630756     0.921798382272     1.007825032230
         H           -1.070243723611     1.207631630756    -0.922567617728     1.007825032230
         N            2.355435276389     0.018529630756    -0.000364617728    14.003074004430
         H            2.738808276389    -0.451660369244     0.809093382272     1.007825032230
         H            1.364775276389    -0.190436369244    -0.001806617728     1.007825032230
         H            2.742586276389    -0.457687369244    -0.804495617728     1.007825032230

  Charge       = 0
  Multiplicity = 1
  Basis Set: AUG-CC-PVTZ
    Blend: AUG-CC-PVTZ
  Basis Set: (AUG-CC-PVTZ AUX)
    Blend: AUG-CC-PVTZ-JKFIT

    Orbital Energies [Eh]
    ---------------------

    Doubly Occupied:

       1A    -15.533399     2A    -11.235711     3A    -11.233989
       4A     -1.136131     5A     -1.039906     6A     -0.798143
       7A     -0.649533     8A     -0.620472     9A     -0.619996
      10A     -0.592248    11A     -0.512908    12A     -0.424397
      13A     -0.382683

  @DF-RHF Final Energy:  -134.28524878487613

   => Energetics <=

    Nuclear Repulsion Energy =             67.4442880739727428
    One-Electron Energy =                -313.9000409827220892
    Two-Electron Energy =                 112.1705041238732008
    Total Energy =                       -134.2852487848761314

  Dipole Moment: [D]
     X:    -0.4966      Y:    -1.5258      Z:     0.0052     Total:     1.6046

      * MP2 total energy                      = -134.920645510187086
      * CCSD total energy                     = -134.957050070276722
      * CCSD(T) total energy                  = -134.981785787904499
*** Psi4 exiting successfully. Buy a developer a beer!
