                               Psi4 1.4a2.dev224

  ==> Input File <==

--------------------------------------------------------------------------
#Generated by lconvert.py for cbs job

memory 50 GB

molecule  {
0 1
  C      -1.635465   -0.589711    0.000260
  C      -1.253728    0.687369   -0.000208
  H      -1.799159   -1.127792   -0.922423
  H      -1.798092   -1.127434    0.923341
  H      -1.091053    1.226753    0.921740
  H      -1.092108    1.226265   -0.922626
--
0 1
  N       1.449274    0.039914   -0.000318
  H       1.832647   -0.430276    0.809140
  H       0.458614   -0.169052   -0.001760
  H       1.836425   -0.436303   -0.804450
units angstrom
no_reorient
symmetry c1
}

set {
scf_type DF
mp2_type DF
e_convergence 7
reference rhf
}

energy(cbs, corl_wfn='mp2', corl_basis='aug-cc-pv[tq]z', delta_wfn='ccsd(t)', delta_basis='aug-cc-pv[dt]z', bsse_type='cp')
--------------------------------------------------------------------------

    Molecular point group: c1
  Charge       = 0
  Multiplicity = 1
  Basis Set: AUG-CC-PVQZ
    Blend: AUG-CC-PVQZ
  Basis Set: (AUG-CC-PVQZ AUX)
    Blend: AUG-CC-PVQZ-JKFIT
  @DF-RHF Final Energy:   -56.22387391564312
    Total Energy =                        -56.2238739156431251
  Basis Set: (AUG-CC-PVQZ AUX)
    Blend: AUG-CC-PVQZ-RI
	 Reference Energy          =     -56.2238739156431180 [Eh]
	 Singles Energy            =      -0.0000000000000000 [Eh]
	 Same-Spin Energy          =      -0.0594016608538001 [Eh]
	 Opposite-Spin Energy      =      -0.2248019901042464 [Eh]
	 Correlation Energy        =      -0.2842036509580464 [Eh]
	 Total Energy              =     -56.5080775666011661 [Eh]
	 SCS Total Energy          =     -56.5134368573861465 [Eh]
    Molecular point group: c1
  Basis Set: AUG-CC-PVDZ
    Blend: AUG-CC-PVDZ
  Basis Set: (AUG-CC-PVDZ AUX)
    Blend: AUG-CC-PVDZ-JKFIT
  @DF-RHF Final Energy:   -56.20532167160236
    Total Energy =                        -56.2053216716023627
      * MP2 total energy                      =  -56.407502856366619
      * CCSD total energy                     =  -56.422279840343904
      * CCSD(T) total energy                  =  -56.427780435560443
  @DF-RHF Final Energy:   -56.22022294251231
    Total Energy =                        -56.2202229425123079
      * MP2 total energy                      =  -56.477412671456214
      * CCSD total energy                     =  -56.489333414376176
      * CCSD(T) total energy                  =  -56.497836776947395
  @DF-RHF Final Energy:   -56.22388721877381
    Total Energy =                        -56.2238872187738110
  @DF-RHF Final Energy:   -56.20561833194758
    Total Energy =                        -56.2056183319475764
      * MP2 total energy                      =  -56.408559948969419
      * CCSD total energy                     =  -56.423262164485308
      * CCSD(T) total energy                  =  -56.428854759318114
  @DF-RHF Final Energy:   -56.22027993659628
    Total Energy =                        -56.2202799365962846
      * MP2 total energy                      =  -56.478623173900118
      * CCSD total energy                     =  -56.490548771959730
      * CCSD(T) total energy                  =  -56.499080357931170
  @DF-RHF Final Energy:   -78.06945106678546
    Total Energy =                        -78.0694510667854615
  @DF-RHF Final Energy:   -78.04395544302844
    Total Energy =                        -78.0439554430284375
      * MP2 total energy                      =  -78.335983432277729
      * CCSD total energy                     =  -78.364576967333321
      * CCSD(T) total energy                  =  -78.376021964779852
  @DF-RHF Final Energy:   -78.06481694820627
    Total Energy =                        -78.0648169482062713
      * MP2 total energy                      =  -78.441588534317390
      * CCSD total energy                     =  -78.466506159286695
      * CCSD(T) total energy                  =  -78.482458513530233
  @DF-RHF Final Energy:   -78.06941922831858
    Total Energy =                        -78.0694192283185799
  @DF-RHF Final Energy:   -78.04351759125240
    Total Energy =                        -78.0435175912523960
      * MP2 total energy                      =  -78.333757200449142
      * CCSD total energy                     =  -78.362504496870827
      * CCSD(T) total energy                  =  -78.373716079309304
  @DF-RHF Final Energy:   -78.06470652711184
    Total Energy =                        -78.0647065271118379
      * MP2 total energy                      =  -78.439899533399071
      * CCSD total energy                     =  -78.464883408189607
      * CCSD(T) total energy                  =  -78.480777493298092
  @DF-RHF Final Energy:  -134.27593592843283
    Total Energy =                       -134.2759359284328298
	 Opposite-Spin Energy      =      -0.5648241027226026 [Eh]
	 Correlation Energy        =      -0.7104056210281715 [Eh]
	 Total Energy              =    -134.9863415494610024 [Eh]

	 ================> DF-SCS-MP2 Energies <==================
	-----------------------------------------------------------
	 SCS Same-Spin Scale       =       0.3333333333333333 [-]
	 SCS Opposite-Spin Scale   =       1.2000000000000000 [-]
	 SCS Same-Spin Energy      =      -0.0485271727685229 [Eh]
	 SCS Opposite-Spin Energy  =      -0.6777889232671231 [Eh]
	 SCS Correlation Energy    =      -0.7263160960356461 [Eh]
	 SCS Total Energy          =    -135.0022520244684756 [Eh]
	-----------------------------------------------------------

  Multiplicity = 1
  Basis Set: AUG-CC-PVDZ
    Blend: AUG-CC-PVDZ
  Basis Set: (AUG-CC-PVDZ AUX)
    Blend: AUG-CC-PVDZ-JKFIT
  @DF-RHF Final Energy:  -134.23206678082533
    Total Energy =                       -134.2320667808253347
      * MP2 total energy                      = -134.734828133837965
      * CCSD total energy                     = -134.776040701374598
      * CCSD(T) total energy                  = -134.794093011831990
    Molecular point group: c1

    Geometry (in Angstrom), charge = 0, multiplicity = 1:

       Center              X                  Y                   Z               Mass
    ------------   -----------------  -----------------  -----------------  -----------------
         C           -1.279440825885    -0.609383922560     0.000278727032    12.000000000000
         C           -0.897703825885     0.667696077440    -0.000189272968    12.000000000000
         H           -1.443134825885    -1.147464922560    -0.922404272968     1.007825032230
         H           -1.442067825885    -1.147106922560     0.923359727032     1.007825032230
         H           -0.735028825885     1.207080077440     0.921758727032     1.007825032230
         H           -0.736083825885     1.206592077440    -0.922607272968     1.007825032230
         N            1.805298174115     0.020241077440    -0.000299272968    14.003074004430
         H            2.188671174115    -0.449948922560     0.809158727032     1.007825032230
         H            0.814638174115    -0.188724922560    -0.001741272968     1.007825032230
         H            2.192449174115    -0.455975922560    -0.804431272968     1.007825032230

  Charge       = 0
  Multiplicity = 1
  Basis Set: AUG-CC-PVTZ
    Blend: AUG-CC-PVTZ
  Basis Set: (AUG-CC-PVTZ AUX)
    Blend: AUG-CC-PVTZ-JKFIT

    Orbital Energies [Eh]
    ---------------------

    Doubly Occupied:

       1A    -15.518525     2A    -11.238222     3A    -11.233349
       4A     -1.130758     5A     -1.045281     6A     -0.801828
       7A     -0.653630     8A     -0.623166     9A     -0.610764
      10A     -0.595197    11A     -0.515505    12A     -0.416730
      13A     -0.376349

  @DF-RHF Final Energy:  -134.26770208803975

   => Energetics <=

    Nuclear Repulsion Energy =             73.8333925173434125
    One-Electron Energy =                -326.6835827628211177
    Two-Electron Energy =                 118.5824881574379361
    Total Energy =                       -134.2677020880397549

  Dipole Moment: [D]
     X:    -0.6315      Y:    -1.3818      Z:     0.0049     Total:     1.5193

      * MP2 total energy                      = -134.912200545548814
      * CCSD total energy                     = -134.946761131151305
      * CCSD(T) total energy                  = -134.972531226974240
*** Psi4 exiting successfully. Buy a developer a beer!
