                               Psi4 1.4a2.dev224

  ==> Input File <==

--------------------------------------------------------------------------
#Generated by lconvert.py for cbs job

memory 50 GB

molecule  {
0 1
  C      -1.259208    0.661371   -0.001288
  C      -1.813834   -0.550852    0.000433
  H      -1.873313    1.551253   -0.002523
  H      -0.184862    0.787061   -0.002030
  H      -1.204797   -1.444286    0.003161
  H      -2.886282   -0.685604    0.000957
--
0 1
  N       2.366707   -0.013437   -0.002783
  H       3.257518    0.465821   -0.032494
  H       2.388559   -0.579568    0.835803
  H       2.374481   -0.663731   -0.778259
units angstrom
no_reorient
symmetry c1
}

set {
scf_type DF
mp2_type DF
e_convergence 7
reference rhf
}

energy(cbs, corl_wfn='mp2', corl_basis='aug-cc-pv[tq]z', delta_wfn='ccsd(t)', delta_basis='aug-cc-pv[dt]z', bsse_type='cp')
--------------------------------------------------------------------------

    Molecular point group: c1
  Charge       = 0
  Multiplicity = 1
  Basis Set: AUG-CC-PVQZ
    Blend: AUG-CC-PVQZ
  Basis Set: (AUG-CC-PVQZ AUX)
    Blend: AUG-CC-PVQZ-JKFIT
  @DF-RHF Final Energy:   -56.22384949817447
    Total Energy =                        -56.2238494981744736
  Basis Set: (AUG-CC-PVQZ AUX)
    Blend: AUG-CC-PVQZ-RI
	 Reference Energy          =     -56.2238494981744736 [Eh]
	 Singles Energy            =      -0.0000000000000000 [Eh]
	 Same-Spin Energy          =      -0.0594040439408113 [Eh]
	 Opposite-Spin Energy      =      -0.2248144548248254 [Eh]
	 Correlation Energy        =      -0.2842184987656367 [Eh]
	 Total Energy              =     -56.5080679969401132 [Eh]
	 SCS Total Energy          =     -56.5134281919445343 [Eh]
    Molecular point group: c1
  Basis Set: AUG-CC-PVDZ
    Blend: AUG-CC-PVDZ
  Basis Set: (AUG-CC-PVDZ AUX)
    Blend: AUG-CC-PVDZ-JKFIT
  @DF-RHF Final Energy:   -56.20530434442168
    Total Energy =                        -56.2053043444216769
      * MP2 total energy                      =  -56.407502216046048
      * CCSD total energy                     =  -56.422280416509757
      * CCSD(T) total energy                  =  -56.427783431113788
  @DF-RHF Final Energy:   -56.22019909075907
    Total Energy =                        -56.2201990907590741
      * MP2 total energy                      =  -56.477403894429905
      * CCSD total energy                     =  -56.489325017494892
      * CCSD(T) total energy                  =  -56.497831147972590
  @DF-RHF Final Energy:   -56.22386184178012
    Total Energy =                        -56.2238618417801206
  @DF-RHF Final Energy:   -56.20565887367180
    Total Energy =                        -56.2056588736718084
      * MP2 total energy                      =  -56.408320284264342
      * CCSD total energy                     =  -56.423054425676135
      * CCSD(T) total energy                  =  -56.428614337017272
  @DF-RHF Final Energy:   -56.22022586673926
    Total Energy =                        -56.2202258667392627
      * MP2 total energy                      =  -56.477709902034363
      * CCSD total energy                     =  -56.489613536731582
      * CCSD(T) total energy                  =  -56.498131426371053
  @DF-RHF Final Energy:   -78.06935776149892
    Total Energy =                        -78.0693577614989209
  @DF-RHF Final Energy:   -78.04359182252108
    Total Energy =                        -78.0435918225210798
      * MP2 total energy                      =  -78.334160869966524
      * CCSD total energy                     =  -78.362879724081608
      * CCSD(T) total energy                  =  -78.374125662371640
  @DF-RHF Final Energy:   -78.06465960628624
    Total Energy =                        -78.0646596062862415
      * MP2 total energy                      =  -78.440300842521012
      * CCSD total energy                     =  -78.465282717637393
      * CCSD(T) total energy                  =  -78.481196001418425
  @DF-RHF Final Energy:   -78.06935312176755
    Total Energy =                        -78.0693531217675485
  @DF-RHF Final Energy:   -78.04348882699443
    Total Energy =                        -78.0434888269944338
      * MP2 total energy                      =  -78.333787089116868
      * CCSD total energy                     =  -78.362532502424472
      * CCSD(T) total energy                  =  -78.373752777192138
  @DF-RHF Final Energy:   -78.06464256468992
    Total Energy =                        -78.0646425646899189
      * MP2 total energy                      =  -78.439874572310316
      * CCSD total energy                     =  -78.464852084065441
      * CCSD(T) total energy                  =  -78.480756162115867
  @DF-RHF Final Energy:  -134.29382798600912
    Total Energy =                       -134.2938279860091200
	 Opposite-Spin Energy      =      -0.5596192366981722 [Eh]
	 Correlation Energy        =      -0.7012744827983629 [Eh]
	 Total Energy              =    -134.9951024688074881 [Eh]

	 ================> DF-SCS-MP2 Energies <==================
	-----------------------------------------------------------
	 SCS Same-Spin Scale       =       0.3333333333333333 [-]
	 SCS Opposite-Spin Scale   =       1.2000000000000000 [-]
	 SCS Same-Spin Energy      =      -0.0472184153667303 [Eh]
	 SCS Opposite-Spin Energy  =      -0.6715430840378066 [Eh]
	 SCS Correlation Energy    =      -0.7187614994045368 [Eh]
	 SCS Total Energy          =    -135.0125894854136561 [Eh]
	-----------------------------------------------------------

  Multiplicity = 1
  Basis Set: AUG-CC-PVDZ
    Blend: AUG-CC-PVDZ
  Basis Set: (AUG-CC-PVDZ AUX)
    Blend: AUG-CC-PVDZ-JKFIT
  @DF-RHF Final Energy:  -134.24988422312430
    Total Energy =                       -134.2498842231242975
      * MP2 total energy                      = -134.744287292263806
      * CCSD total energy                     = -134.787527011375659
      * CCSD(T) total energy                  = -134.804548644093103
    Molecular point group: c1

    Geometry (in Angstrom), charge = 0, multiplicity = 1:

       Center              X                  Y                   Z               Mass
    ------------   -----------------  -----------------  -----------------  -----------------
         C           -1.218163348520     0.648841289009    -0.000745964767    12.000000000000
         C           -1.772789348520    -0.563381710991     0.000975035233    12.000000000000
         H           -1.832268348520     1.538723289009    -0.001980964767     1.007825032230
         H           -0.143817348520     0.774531289009    -0.001487964767     1.007825032230
         H           -1.163752348520    -1.456815710991     0.003703035233     1.007825032230
         H           -2.845237348520    -0.698133710991     0.001499035233     1.007825032230
         N            2.407751651480    -0.025966710991    -0.002240964767    14.003074004430
         H            3.298562651480     0.453291289009    -0.031951964767     1.007825032230
         H            2.429603651480    -0.592097710991     0.836345035233     1.007825032230
         H            2.415525651480    -0.676260710991    -0.777716964767     1.007825032230

  Charge       = 0
  Multiplicity = 1
  Basis Set: AUG-CC-PVTZ
    Blend: AUG-CC-PVTZ
  Basis Set: (AUG-CC-PVTZ AUX)
    Blend: AUG-CC-PVTZ-JKFIT

    Orbital Energies [Eh]
    ---------------------

    Doubly Occupied:

       1A    -15.546502     2A    -11.218489     3A    -11.215561
       4A     -1.149001     5A     -1.021742     6A     -0.780200
       7A     -0.634981     8A     -0.632409     9A     -0.629458
      10A     -0.574290    11A     -0.496848    12A     -0.436322
      13A     -0.364630

  @DF-RHF Final Energy:  -134.28549163838881

   => Energetics <=

    Nuclear Repulsion Energy =             66.4468156965833288
    One-Electron Energy =                -312.0637512629737103
    Two-Electron Energy =                 111.3314439280015904
    Total Energy =                       -134.2854916383888053

  Dipole Moment: [D]
     X:     1.6285      Y:    -0.9003      Z:     0.0423     Total:     1.8613

      * MP2 total energy                      = -134.920021008818622
      * CCSD total energy                     = -134.956692187645587
      * CCSD(T) total energy                  = -134.981375638984815
*** Psi4 exiting successfully. Buy a developer a beer!
