                               Psi4 1.4a2.dev224

  ==> Input File <==

--------------------------------------------------------------------------
#Generated by lconvert.py for cbs job

memory 50 GB

molecule  {
0 1
  C      -1.259208    0.661371   -0.001288
  C      -1.813834   -0.550852    0.000433
  H      -1.873313    1.551253   -0.002523
  H      -0.184862    0.787061   -0.002030
  H      -1.204797   -1.444286    0.003161
  H      -2.886282   -0.685604    0.000957
--
0 1
  N       1.514280    0.001466   -0.002259
  H       2.405091    0.480724   -0.031970
  H       1.536132   -0.564665    0.836327
  H       1.522054   -0.648828   -0.777735
units angstrom
no_reorient
symmetry c1
}

set {
scf_type DF
mp2_type DF
e_convergence 7
reference rhf
}

energy(cbs, corl_wfn='mp2', corl_basis='aug-cc-pv[tq]z', delta_wfn='ccsd(t)', delta_basis='aug-cc-pv[dt]z', bsse_type='cp')
--------------------------------------------------------------------------

    Molecular point group: c1
  Charge       = 0
  Multiplicity = 1
  Basis Set: AUG-CC-PVQZ
    Blend: AUG-CC-PVQZ
  Basis Set: (AUG-CC-PVQZ AUX)
    Blend: AUG-CC-PVQZ-JKFIT
  @DF-RHF Final Energy:   -56.22384949820489
    Total Energy =                        -56.2238494982048920
  Basis Set: (AUG-CC-PVQZ AUX)
    Blend: AUG-CC-PVQZ-RI
	 Reference Energy          =     -56.2238494982048920 [Eh]
	 Singles Energy            =      -0.0000000000000000 [Eh]
	 Same-Spin Energy          =      -0.0594040439408350 [Eh]
	 Opposite-Spin Energy      =      -0.2248144548246174 [Eh]
	 Correlation Energy        =      -0.2842184987654524 [Eh]
	 Total Energy              =     -56.5080679969703468 [Eh]
	 SCS Total Energy          =     -56.5134281919747110 [Eh]
    Molecular point group: c1
  Basis Set: AUG-CC-PVDZ
    Blend: AUG-CC-PVDZ
  Basis Set: (AUG-CC-PVDZ AUX)
    Blend: AUG-CC-PVDZ-JKFIT
  @DF-RHF Final Energy:   -56.20530434442999
    Total Energy =                        -56.2053043444299902
      * MP2 total energy                      =  -56.407502216046083
      * CCSD total energy                     =  -56.422280416509828
      * CCSD(T) total energy                  =  -56.427783431113859
  @DF-RHF Final Energy:   -56.22019909075582
    Total Energy =                        -56.2201990907558269
      * MP2 total energy                      =  -56.477403894429933
      * CCSD total energy                     =  -56.489325017494878
      * CCSD(T) total energy                  =  -56.497831147972583
  @DF-RHF Final Energy:   -56.22387359019221
    Total Energy =                        -56.2238735901921984
  @DF-RHF Final Energy:   -56.20604378569266
    Total Energy =                        -56.2060437856926569
      * MP2 total energy                      =  -56.409484523114102
      * CCSD total energy                     =  -56.424141872145299
      * CCSD(T) total energy                  =  -56.429793480970254
  @DF-RHF Final Energy:   -56.22026273643461
    Total Energy =                        -56.2202627364346057
      * MP2 total energy                      =  -56.478335078582766
      * CCSD total energy                     =  -56.490205676946687
      * CCSD(T) total energy                  =  -56.498745073555213
  @DF-RHF Final Energy:   -78.06936464382881
    Total Energy =                        -78.0693646438288056
  @DF-RHF Final Energy:   -78.04365744163442
    Total Energy =                        -78.0436574416344229
      * MP2 total energy                      =  -78.334544464729646
      * CCSD total energy                     =  -78.363224349522284
      * CCSD(T) total energy                  =  -78.374498989062999
  @DF-RHF Final Energy:   -78.06467884919680
    Total Energy =                        -78.0646788491967953
      * MP2 total energy                      =  -78.440822328129471
      * CCSD total energy                     =  -78.465790051468787
      * CCSD(T) total energy                  =  -78.481718925235967
  @DF-RHF Final Energy:   -78.06935312194106
    Total Energy =                        -78.0693531219410630
  @DF-RHF Final Energy:   -78.04348882687118
    Total Energy =                        -78.0434888268711831
      * MP2 total energy                      =  -78.333787089115916
      * CCSD total energy                     =  -78.362532502423306
      * CCSD(T) total energy                  =  -78.373752777190788
  @DF-RHF Final Energy:   -78.06464256466970
    Total Energy =                        -78.0646425646696969
      * MP2 total energy                      =  -78.439874572313485
      * CCSD total energy                     =  -78.464852084069165
      * CCSD(T) total energy                  =  -78.480756162119661
  @DF-RHF Final Energy:  -134.27984944126698
    Total Energy =                       -134.2798494412669470
	 Opposite-Spin Energy      =      -0.5623965195165933 [Eh]
	 Correlation Energy        =      -0.7067295936997611 [Eh]
	 Total Energy              =    -134.9865790349667236 [Eh]

	 ================> DF-SCS-MP2 Energies <==================
	-----------------------------------------------------------
	 SCS Same-Spin Scale       =       0.3333333333333333 [-]
	 SCS Opposite-Spin Scale   =       1.2000000000000000 [-]
	 SCS Same-Spin Energy      =      -0.0481110247277226 [Eh]
	 SCS Opposite-Spin Energy  =      -0.6748758234199119 [Eh]
	 SCS Correlation Energy    =      -0.7229868481476345 [Eh]
	 SCS Total Energy          =    -135.0028362894146028 [Eh]
	-----------------------------------------------------------

  Multiplicity = 1
  Basis Set: AUG-CC-PVDZ
    Blend: AUG-CC-PVDZ
  Basis Set: (AUG-CC-PVDZ AUX)
    Blend: AUG-CC-PVDZ-JKFIT
  @DF-RHF Final Energy:  -134.23619150219508
    Total Energy =                       -134.2361915021950836
      * MP2 total energy                      = -134.735110122000663
      * CCSD total energy                     = -134.777267274431296
      * CCSD(T) total energy                  = -134.794918644246280
    Molecular point group: c1

    Geometry (in Angstrom), charge = 0, multiplicity = 1:

       Center              X                  Y                   Z               Mass
    ------------   -----------------  -----------------  -----------------  -----------------
         C           -0.896046549369     0.643209713921    -0.000943974923    12.000000000000
         C           -1.450672549369    -0.569013286079     0.000777025077    12.000000000000
         H           -1.510151549369     1.533091713921    -0.002178974923     1.007825032230
         H            0.178299450631     0.768899713921    -0.001685974923     1.007825032230
         H           -0.841635549369    -1.462447286079     0.003505025077     1.007825032230
         H           -2.523120549369    -0.703765286079     0.001301025077     1.007825032230
         N            1.877441450631    -0.016695286079    -0.001914974923    14.003074004430
         H            2.768252450631     0.462562713921    -0.031625974923     1.007825032230
         H            1.899293450631    -0.582826286079     0.836671025077     1.007825032230
         H            1.885215450631    -0.666989286079    -0.777390974923     1.007825032230

  Charge       = 0
  Multiplicity = 1
  Basis Set: AUG-CC-PVTZ
    Blend: AUG-CC-PVTZ
  Basis Set: (AUG-CC-PVTZ AUX)
    Blend: AUG-CC-PVTZ-JKFIT

    Orbital Energies [Eh]
    ---------------------

    Doubly Occupied:

       1A    -15.548011     2A    -11.208395     3A    -11.196626
       4A     -1.157754     5A     -1.011131     6A     -0.771215
       7A     -0.645412     8A     -0.639203     9A     -0.621012
      10A     -0.566608    11A     -0.504667    12A     -0.417572
      13A     -0.354399

  @DF-RHF Final Energy:  -134.27153867057700

   => Energetics <=

    Nuclear Repulsion Energy =             72.0621273059834095
    One-Electron Energy =                -323.3833200503314060
    Two-Electron Energy =                 117.0496540737710092
    Total Energy =                       -134.2715386705770015

  Dipole Moment: [D]
     X:     2.0667      Y:    -0.7597      Z:     0.0376     Total:     2.2022

      * MP2 total energy                      = -134.911701246807667
      * CCSD total energy                     = -134.947374406077330
      * CCSD(T) total energy                  = -134.972741024354548
*** Psi4 exiting successfully. Buy a developer a beer!
