                               Psi4 1.4a2.dev224

  ==> Input File <==

--------------------------------------------------------------------------
#Generated by lconvert.py for sapt job

memory 50 GB

molecule  {
0 1
  O      -0.702200   -0.056060    0.009940
  H      -1.022190    0.846780   -0.011490
  H       0.257520    0.042120    0.005220
--
0 1
  O       2.872390    0.021600   -0.000900
  H       3.249010   -0.416780    0.765220
  H       3.244650   -0.454610   -0.746310
units angstrom
no_reorient
symmetry c1
}

set {
scf_type DF
basis aug-cc-pvtz
freeze_core True
guess SAD
}
energy('sapt2+')
--------------------------------------------------------------------------

  //              Dimer HF             //
    Molecular point group: c1
  Charge       = 0
  Multiplicity = 1
  Basis Set: AUG-CC-PVTZ
    Blend: AUG-CC-PVTZ
  Basis Set: (AUG-CC-PVTZ AUX)
    Blend: AUG-CC-PVTZ-JKFIT
  @DF-RHF Final Energy:  -152.12519842512549
    Total Energy =                       -152.1251984251255180
  //            Monomer A HF           //
    Molecular point group: c1
  Multiplicity = 1
  Basis Set: AUG-CC-PVTZ
    Blend: AUG-CC-PVTZ
  Basis Set: (AUG-CC-PVTZ AUX)
    Blend: AUG-CC-PVTZ-JKFIT
  @DF-RHF Final Energy:   -76.06022884431701
    Total Energy =                        -76.0602288443170096
  //            Monomer B HF           //
    Molecular point group: c1

    Geometry (in Angstrom), charge = 0, multiplicity = 1:

       Center              X                  Y                   Z               Mass
    ------------   -----------------  -----------------  -----------------  -----------------
      Gh(O)          -1.826146528049    -0.041248200625     0.005572204228    15.994914619570
      Gh(H)          -2.146136528049     0.861591799375    -0.015857795772     1.007825032230
      Gh(H)          -0.866426528049     0.056931799375     0.000852204228     1.007825032230
         O            1.748443471951     0.036411799375    -0.005267795772    15.994914619570
         H            2.125063471951    -0.401968200625     0.760852204228     1.007825032230
         H            2.120703471951    -0.439798200625    -0.750677795772     1.007825032230

  Charge       = 0
  Multiplicity = 1
  Basis Set: AUG-CC-PVTZ
    Blend: AUG-CC-PVTZ
  Basis Set: (AUG-CC-PVTZ AUX)
    Blend: AUG-CC-PVTZ-JKFIT

    Orbital Energies [Eh]
    ---------------------

    Doubly Occupied:

       1A    -20.567760     2A     -1.352687     3A     -0.715362
       4A     -0.585516     5A     -0.510322

  @DF-RHF Final Energy:   -76.06044750846861

   => Energetics <=

    Nuclear Repulsion Energy =              9.1725972898298203
    One-Electron Energy =                -123.0027954116594913
    Two-Electron Energy =                  37.7697506133610617
    Total Energy =                        -76.0604475084685987

  Dipole Moment: [D]
     X:     1.2628      Y:    -1.5405      Z:     0.0349     Total:     1.9922

    SAPT Results
  --------------------------------------------------------------------------------------------------------
    Electrostatics                 -4.64031731 [mEh]      -2.91184307 [kcal/mol]     -12.18315141 [kJ/mol]
      Elst10,r                     -4.93574993 [mEh]      -3.09722984 [kcal/mol]     -12.95880965 [kJ/mol]
      Elst12,r                      0.29543262 [mEh]       0.18538677 [kcal/mol]       0.77565824 [kJ/mol]

    Exchange                        1.18392044 [mEh]       0.74292129 [kcal/mol]       3.10838269 [kJ/mol]
      Exch10                        0.94841120 [mEh]       0.59513701 [kcal/mol]       2.49005326 [kJ/mol]
      Exch10(S^2)                   0.94764975 [mEh]       0.59465919 [kcal/mol]       2.48805407 [kJ/mol]
      Exch11(S^2)                   0.01032669 [mEh]       0.00648010 [kcal/mol]       0.02711273 [kJ/mol]
      Exch12(S^2)                   0.22518255 [mEh]       0.14130418 [kcal/mol]       0.59121670 [kJ/mol]

    Induction                      -0.58425366 [mEh]      -0.36662470 [kcal/mol]      -1.53395777 [kJ/mol]
      Ind20,r                      -0.57012487 [mEh]      -0.35775876 [kcal/mol]      -1.49686265 [kJ/mol]
      Ind22                        -0.06823713 [mEh]      -0.04281945 [kcal/mol]      -0.17915656 [kJ/mol]
      Exch-Ind20,r                  0.15638223 [mEh]       0.09813133 [kcal/mol]       0.41058148 [kJ/mol]
      Exch-Ind22                    0.01871708 [mEh]       0.01174515 [kcal/mol]       0.04914169 [kJ/mol]
      delta HF,r (2)               -0.12099096 [mEh]      -0.07592298 [kcal/mol]      -0.31766173 [kJ/mol]

    Dispersion                     -1.04910890 [mEh]      -0.65832578 [kcal/mol]      -2.75443505 [kJ/mol]
      Disp20                       -0.93405199 [mEh]      -0.58612647 [kcal/mol]      -2.45235315 [kJ/mol]
      Disp21                       -0.00080379 [mEh]      -0.00050439 [kcal/mol]      -0.00211035 [kJ/mol]
      Disp22 (SDQ)                 -0.02259760 [mEh]      -0.01418021 [kcal/mol]      -0.05932999 [kJ/mol]
      Disp22 (T)                   -0.14870799 [mEh]      -0.09331567 [kcal/mol]      -0.39043276 [kJ/mol]
      Est. Disp22 (T)              -0.17124493 [mEh]      -0.10745781 [kcal/mol]      -0.44960349 [kJ/mol]
      Exch-Disp20                   0.07958940 [mEh]       0.04994310 [kcal/mol]       0.20896194 [kJ/mol]

  Total HF                         -4.52207234 [mEh]      -2.83764323 [kcal/mol]     -11.87269929 [kJ/mol]
  Total SAPT0                      -5.37653493 [mEh]      -3.37382660 [kcal/mol]     -14.11609051 [kJ/mol]
  Total SAPT2                      -4.89511311 [mEh]      -3.07172985 [kcal/mol]     -12.85211770 [kJ/mol]
  Total SAPT2+                     -5.08975943 [mEh]      -3.19387226 [kcal/mol]     -13.36316154 [kJ/mol]

  Special recipe for scaled SAPT0 (see Manual):
    Electrostatics sSAPT0          -4.93574993 [mEh]      -3.09722984 [kcal/mol]     -12.95880965 [kJ/mol]
    Exchange sSAPT0                 0.94841120 [mEh]       0.59513701 [kcal/mol]       2.49005326 [kJ/mol]
    Induction sSAPT0               -0.53435634 [mEh]      -0.33531367 [kcal/mol]      -1.40295238 [kJ/mol]
    Dispersion sSAPT0              -0.85427058 [mEh]      -0.53606288 [kcal/mol]      -2.24288710 [kJ/mol]
  Total sSAPT0                     -5.37596565 [mEh]      -3.37346938 [kcal/mol]     -14.11459587 [kJ/mol]
  --------------------------------------------------------------------------------------------------------

*** Psi4 exiting successfully. Buy a developer a beer!
