                               Psi4 1.4a2.dev224

  ==> Input File <==

--------------------------------------------------------------------------
#Generated by lconvert.py for sapt job

memory 50 GB

molecule  {
0 1
  O      -0.702200   -0.056060    0.009940
  H      -1.022190    0.846780   -0.011490
  H       0.257520    0.042120    0.005220
--
0 1
  O       4.079200    0.012130   -0.003730
  H       4.455830   -0.426250    0.762390
  H       4.451470   -0.464080   -0.749130
units angstrom
no_reorient
symmetry c1
}

set {
scf_type DF
basis aug-cc-pvtz
freeze_core True
guess SAD
}
energy('sapt2+')
--------------------------------------------------------------------------

  //              Dimer HF             //
    Molecular point group: c1
  Charge       = 0
  Multiplicity = 1
  Basis Set: AUG-CC-PVTZ
    Blend: AUG-CC-PVTZ
  Basis Set: (AUG-CC-PVTZ AUX)
    Blend: AUG-CC-PVTZ-JKFIT
  @DF-RHF Final Energy:  -152.12228404830043
    Total Energy =                       -152.1222840483004006
  //            Monomer A HF           //
    Molecular point group: c1
  Multiplicity = 1
  Basis Set: AUG-CC-PVTZ
    Blend: AUG-CC-PVTZ
  Basis Set: (AUG-CC-PVTZ AUX)
    Blend: AUG-CC-PVTZ-JKFIT
  @DF-RHF Final Energy:   -76.06021611416658
    Total Energy =                        -76.0602161141665931
  //            Monomer B HF           //
    Molecular point group: c1

    Geometry (in Angstrom), charge = 0, multiplicity = 1:

       Center              X                  Y                   Z               Mass
    ------------   -----------------  -----------------  -----------------  -----------------
      Gh(O)          -2.429552087624    -0.036513200625     0.006986924440    15.994914619570
      Gh(H)          -2.749542087624     0.866326799375    -0.014443075560     1.007825032230
      Gh(H)          -1.469832087624     0.061666799375     0.002266924440     1.007825032230
         O            2.351847912376     0.031676799375    -0.006683075560    15.994914619570
         H            2.728477912376    -0.406703200625     0.759436924440     1.007825032230
         H            2.724117912376    -0.444533200625    -0.752083075560     1.007825032230

  Charge       = 0
  Multiplicity = 1
  Basis Set: AUG-CC-PVTZ
    Blend: AUG-CC-PVTZ
  Basis Set: (AUG-CC-PVTZ AUX)
    Blend: AUG-CC-PVTZ-JKFIT

    Orbital Energies [Eh]
    ---------------------

    Doubly Occupied:

       1A    -20.567876     2A     -1.352753     3A     -0.715427
       4A     -0.585579     5A     -0.510323

  @DF-RHF Final Energy:   -76.06040092652796

   => Energetics <=

    Nuclear Repulsion Energy =              9.1725994362120282
    One-Electron Energy =                -123.0020847549602365
    Two-Electron Energy =                  37.7690843922202362
    Total Energy =                        -76.0604009265279757

  Dipole Moment: [D]
     X:     1.2639      Y:    -1.5421      Z:     0.0349     Total:     1.9942

    SAPT Results
  --------------------------------------------------------------------------------------------------------
    Electrostatics                 -1.47957529 [mEh]      -0.92844751 [kcal/mol]      -3.88462438 [kJ/mol]
      Elst10,r                     -1.63067494 [mEh]      -1.02326397 [kcal/mol]      -4.28133646 [kJ/mol]
      Elst12,r                      0.15109965 [mEh]       0.09481646 [kcal/mol]       0.39671208 [kJ/mol]

    Exchange                        0.01488181 [mEh]       0.00933848 [kcal/mol]       0.03907219 [kJ/mol]
      Exch10                        0.01040270 [mEh]       0.00652780 [kcal/mol]       0.02731230 [kJ/mol]
      Exch10(S^2)                   0.01040256 [mEh]       0.00652771 [kcal/mol]       0.02731192 [kJ/mol]
      Exch11(S^2)                   0.00005714 [mEh]       0.00003585 [kcal/mol]       0.00015002 [kJ/mol]
      Exch12(S^2)                   0.00442197 [mEh]       0.00277483 [kcal/mol]       0.01160987 [kJ/mol]

    Induction                      -0.04827461 [mEh]      -0.03029277 [kcal/mol]      -0.12674496 [kJ/mol]
      Ind20,r                      -0.04606656 [mEh]      -0.02890721 [kcal/mol]      -0.12094775 [kJ/mol]
      Ind22                        -0.00158553 [mEh]      -0.00099494 [kcal/mol]      -0.00416281 [kJ/mol]
      Exch-Ind20,r                  0.00134514 [mEh]       0.00084409 [kcal/mol]       0.00353165 [kJ/mol]
      Exch-Ind22                    0.00004630 [mEh]       0.00002905 [kcal/mol]       0.00012155 [kJ/mol]
      delta HF,r (2)               -0.00201395 [mEh]      -0.00126377 [kcal/mol]      -0.00528762 [kJ/mol]

    Dispersion                     -0.13285978 [mEh]      -0.08337077 [kcal/mol]      -0.34882332 [kJ/mol]
      Disp20                       -0.11287378 [mEh]      -0.07082937 [kcal/mol]      -0.29635007 [kJ/mol]
      Disp21                        0.00256991 [mEh]       0.00161264 [kcal/mol]       0.00674730 [kJ/mol]
      Disp22 (SDQ)                 -0.00224770 [mEh]      -0.00141045 [kcal/mol]      -0.00590133 [kJ/mol]
      Disp22 (T)                   -0.01996898 [mEh]      -0.01253072 [kcal/mol]      -0.05242855 [kJ/mol]
      Est. Disp22 (T)              -0.02149824 [mEh]      -0.01349035 [kcal/mol]      -0.05644361 [kJ/mol]
      Exch-Disp20                   0.00119002 [mEh]       0.00074675 [kcal/mol]       0.00312439 [kJ/mol]

  Total HF                         -1.66700761 [mEh]      -1.04606307 [kcal/mol]      -4.37672787 [kJ/mol]
  Total SAPT0                      -1.77869137 [mEh]      -1.11614568 [kcal/mol]      -4.66995354 [kJ/mol]
  Total SAPT2                      -1.62465184 [mEh]      -1.01948442 [kcal/mol]      -4.26552283 [kJ/mol]
  Total SAPT2+                     -1.64582787 [mEh]      -1.03277258 [kcal/mol]      -4.32112048 [kJ/mol]

  Special recipe for scaled SAPT0 (see Manual):
    Electrostatics sSAPT0          -1.63067494 [mEh]      -1.02326397 [kcal/mol]      -4.28133646 [kJ/mol]
    Exchange sSAPT0                 0.01040270 [mEh]       0.00652780 [kcal/mol]       0.02731230 [kJ/mol]
    Induction sSAPT0               -0.04673532 [mEh]      -0.02932686 [kcal/mol]      -0.12270356 [kJ/mol]
    Dispersion sSAPT0              -0.11168371 [mEh]      -0.07008259 [kcal/mol]      -0.29322554 [kJ/mol]
  Total sSAPT0                     -1.77869126 [mEh]      -1.11614562 [kcal/mol]      -4.66995326 [kJ/mol]
  --------------------------------------------------------------------------------------------------------

*** Psi4 exiting successfully. Buy a developer a beer!
