                               Psi4 1.4a2.dev224

  ==> Input File <==

--------------------------------------------------------------------------
#Generated by lconvert.py for sapt job

memory 50 GB

molecule  {
0 1
  O      -0.702200   -0.056060    0.009940
  H      -1.022190    0.846780   -0.011490
  H       0.257520    0.042120    0.005220
--
0 1
  O       3.475800    0.016870   -0.002320
  H       3.852420   -0.421510    0.763810
  H       3.848060   -0.459350   -0.747720
units angstrom
no_reorient
symmetry c1
}

set {
scf_type DF
basis aug-cc-pvtz
freeze_core True
guess SAD
}
energy('sapt2+')
--------------------------------------------------------------------------

  //              Dimer HF             //
    Molecular point group: c1
  Charge       = 0
  Multiplicity = 1
  Basis Set: AUG-CC-PVTZ
    Blend: AUG-CC-PVTZ
  Basis Set: (AUG-CC-PVTZ AUX)
    Blend: AUG-CC-PVTZ-JKFIT
  @DF-RHF Final Energy:  -152.12333113909000
    Total Energy =                       -152.1233311390900269
  //            Monomer A HF           //
    Molecular point group: c1
  Multiplicity = 1
  Basis Set: AUG-CC-PVTZ
    Blend: AUG-CC-PVTZ
  Basis Set: (AUG-CC-PVTZ AUX)
    Blend: AUG-CC-PVTZ-JKFIT
  @DF-RHF Final Energy:   -76.06021860956871
    Total Energy =                        -76.0602186095687216
  //            Monomer B HF           //
    Molecular point group: c1

    Geometry (in Angstrom), charge = 0, multiplicity = 1:

       Center              X                  Y                   Z               Mass
    ------------   -----------------  -----------------  -----------------  -----------------
      Gh(O)          -2.127851528049    -0.038882920837     0.006281644653    15.994914619570
      Gh(H)          -2.447841528049     0.863957079163    -0.015148355347     1.007825032230
      Gh(H)          -1.168131528049     0.059297079163     0.001561644653     1.007825032230
         O            2.050148471951     0.034047079163    -0.005978355347    15.994914619570
         H            2.426768471951    -0.404332920837     0.760151644653     1.007825032230
         H            2.422408471951    -0.442172920837    -0.751378355347     1.007825032230

  Charge       = 0
  Multiplicity = 1
  Basis Set: AUG-CC-PVTZ
    Blend: AUG-CC-PVTZ
  Basis Set: (AUG-CC-PVTZ AUX)
    Blend: AUG-CC-PVTZ-JKFIT

    Orbital Energies [Eh]
    ---------------------

    Doubly Occupied:

       1A    -20.567855     2A     -1.352739     3A     -0.715414
       4A     -0.585567     5A     -0.510322

  @DF-RHF Final Energy:   -76.06040696903185

   => Energetics <=

    Nuclear Repulsion Energy =              9.1725734288913223
    One-Electron Energy =                -123.0021686113162787
    Two-Electron Energy =                  37.7691882133931074
    Total Energy =                        -76.0604069690318454

  Dipole Moment: [D]
     X:     1.2639      Y:    -1.5416      Z:     0.0349     Total:     1.9938

    SAPT Results
  --------------------------------------------------------------------------------------------------------
    Electrostatics                 -2.45036515 [mEh]      -1.53762735 [kcal/mol]      -6.43343282 [kJ/mol]
      Elst10,r                     -2.66814681 [mEh]      -1.67428740 [kcal/mol]      -7.00521850 [kJ/mol]
      Elst12,r                      0.21778166 [mEh]       0.13666006 [kcal/mol]       0.57178568 [kJ/mol]

    Exchange                        0.13386167 [mEh]       0.08399947 [kcal/mol]       0.35145377 [kJ/mol]
      Exch10                        0.10012010 [mEh]       0.06282631 [kcal/mol]       0.26286529 [kJ/mol]
      Exch10(S^2)                   0.10010942 [mEh]       0.06281961 [kcal/mol]       0.26283724 [kJ/mol]
      Exch11(S^2)                   0.00079468 [mEh]       0.00049867 [kcal/mol]       0.00208642 [kJ/mol]
      Exch12(S^2)                   0.03294689 [mEh]       0.02067449 [kcal/mol]       0.08650205 [kJ/mol]

    Induction                      -0.14622284 [mEh]      -0.09175622 [kcal/mol]      -0.38390801 [kJ/mol]
      Ind20,r                      -0.13627684 [mEh]      -0.08551501 [kcal/mol]      -0.35779480 [kJ/mol]
      Ind22                        -0.00961045 [mEh]      -0.00603065 [kcal/mol]      -0.02523225 [kJ/mol]
      Exch-Ind20,r                  0.01306540 [mEh]       0.00819866 [kcal/mol]       0.03430321 [kJ/mol]
      Exch-Ind22                    0.00092139 [mEh]       0.00057818 [kcal/mol]       0.00241912 [kJ/mol]
      delta HF,r (2)               -0.01432234 [mEh]      -0.00898740 [kcal/mol]      -0.03760330 [kJ/mol]

    Dispersion                     -0.34935169 [mEh]      -0.21922149 [kcal/mol]      -0.91722273 [kJ/mol]
      Disp20                       -0.29778185 [mEh]      -0.18686093 [kcal/mol]      -0.78182613 [kJ/mol]
      Disp21                        0.00208088 [mEh]       0.00130577 [kcal/mol]       0.00546336 [kJ/mol]
      Disp22 (SDQ)                 -0.00733972 [mEh]      -0.00460574 [kcal/mol]      -0.01927044 [kJ/mol]
      Disp22 (T)                   -0.05018211 [mEh]      -0.03148975 [kcal/mol]      -0.13175311 [kJ/mol]
      Est. Disp22 (T)              -0.05628615 [mEh]      -0.03532009 [kcal/mol]      -0.14777927 [kJ/mol]
      Exch-Disp20                   0.00997515 [mEh]       0.00625950 [kcal/mol]       0.02618974 [kJ/mol]

  Total HF                         -2.70556049 [mEh]      -1.69776484 [kcal/mol]      -7.10344809 [kJ/mol]
  Total SAPT0                      -2.99336719 [mEh]      -1.87836627 [kcal/mol]      -7.85908447 [kJ/mol]
  Total SAPT2                      -2.75053302 [mEh]      -1.72598553 [kcal/mol]      -7.22152344 [kJ/mol]
  Total SAPT2+                     -2.81207801 [mEh]      -1.76460559 [kcal/mol]      -7.38310979 [kJ/mol]

  Special recipe for scaled SAPT0 (see Manual):
    Electrostatics sSAPT0          -2.66814681 [mEh]      -1.67428740 [kcal/mol]      -7.00521850 [kJ/mol]
    Exchange sSAPT0                 0.10012010 [mEh]       0.06282631 [kcal/mol]       0.26286529 [kJ/mol]
    Induction sSAPT0               -0.13752959 [mEh]      -0.08630112 [kcal/mol]      -0.36108390 [kJ/mol]
    Dispersion sSAPT0              -0.28780350 [mEh]      -0.18059943 [kcal/mol]      -0.75562800 [kJ/mol]
  Total sSAPT0                     -2.99335981 [mEh]      -1.87836164 [kcal/mol]      -7.85906510 [kJ/mol]
  --------------------------------------------------------------------------------------------------------

*** Psi4 exiting successfully. Buy a developer a beer!
