                               Psi4 1.4a2.dev224

  ==> Input File <==

--------------------------------------------------------------------------
#Generated by lconvert.py for sapt job

memory 50 GB

molecule  {
0 1
  O      -0.525330   -0.050970   -0.314520
  H      -0.942010    0.747900    0.011250
  H       0.403700    0.059790   -0.073570
--
0 1
  O       4.121430    0.032020    0.209060
  H       4.489410   -0.540050    0.886590
  C       4.586430   -0.439610   -1.053090
  H       4.155620    0.211490   -1.806210
  H       5.672400   -0.388810   -1.127410
  H       4.258090   -1.459480   -1.252180
units angstrom
no_reorient
symmetry c1
}

set {
scf_type DF
basis aug-cc-pvtz
freeze_core True
guess SAD
}
energy('sapt2+')
--------------------------------------------------------------------------

  //              Dimer HF             //
    Molecular point group: c1
  Charge       = 0
  Multiplicity = 1
  Basis Set: AUG-CC-PVTZ
    Blend: AUG-CC-PVTZ
  Basis Set: (AUG-CC-PVTZ AUX)
    Blend: AUG-CC-PVTZ-JKFIT
  @DF-RHF Final Energy:  -191.15390995745105
    Total Energy =                       -191.1539099574510487
  //            Monomer A HF           //
    Molecular point group: c1
  Multiplicity = 1
  Basis Set: AUG-CC-PVTZ
    Blend: AUG-CC-PVTZ
  Basis Set: (AUG-CC-PVTZ AUX)
    Blend: AUG-CC-PVTZ-JKFIT
  @DF-RHF Final Energy:   -76.06016318233495
    Total Energy =                        -76.0601631823349464
  //            Monomer B HF           //
    Molecular point group: c1

    Geometry (in Angstrom), charge = 0, multiplicity = 1:

       Center              X                  Y                   Z               Mass
    ------------   -----------------  -----------------  -----------------  -----------------
      Gh(O)          -3.138104556950     0.088093653418     0.039454375994    15.994914619570
      Gh(H)          -3.554784556950     0.886963653418     0.365224375994     1.007825032230
      Gh(H)          -2.209074556950     0.198853653418     0.280404375994     1.007825032230
         O            1.508655443050     0.171083653418     0.563034375994    15.994914619570
         H            1.876635443050    -0.400986346582     1.240564375994     1.007825032230
         C            1.973655443050    -0.300546346582    -0.699115624006    12.000000000000
         H            1.542845443050     0.350553653418    -1.452235624006     1.007825032230
         H            3.059625443050    -0.249746346582    -0.773435624006     1.007825032230
         H            1.645315443050    -1.320416346582    -0.898205624006     1.007825032230

  Charge       = 0
  Multiplicity = 1
  Basis Set: AUG-CC-PVTZ
    Blend: AUG-CC-PVTZ
  Basis Set: (AUG-CC-PVTZ AUX)
    Blend: AUG-CC-PVTZ-JKFIT

    Orbital Energies [Eh]
    ---------------------

    Doubly Occupied:

       1A    -20.559050     2A    -11.270658     3A     -1.356225
       4A     -0.926777     5A     -0.690232     6A     -0.621055
       7A     -0.592204     8A     -0.505438     9A     -0.452634

  @DF-RHF Final Energy:  -115.09201781109573

   => Energetics <=

    Nuclear Repulsion Energy =             40.2947439295269518
    One-Electron Energy =                -236.8249770671675094
    Two-Electron Energy =                  81.4382153265448210
    Total Energy =                       -115.0920178110957295

  Dipole Moment: [D]
     X:     1.0930      Y:    -1.4241      Z:    -0.3238     Total:     1.8241

    SAPT Results
  --------------------------------------------------------------------------------------------------------
    Electrostatics                 -1.55575919 [mEh]      -0.97625363 [kcal/mol]      -4.08464519 [kJ/mol]
      Elst10,r                     -1.68323108 [mEh]      -1.05624345 [kcal/mol]      -4.41932259 [kJ/mol]
      Elst12,r                      0.12747189 [mEh]       0.07998982 [kcal/mol]       0.33467739 [kJ/mol]

    Exchange                        0.02258625 [mEh]       0.01417309 [kcal/mol]       0.05930020 [kJ/mol]
      Exch10                        0.01534181 [mEh]       0.00962713 [kcal/mol]       0.04027991 [kJ/mol]
      Exch10(S^2)                   0.01534152 [mEh]       0.00962695 [kcal/mol]       0.04027916 [kJ/mol]
      Exch11(S^2)                  -0.00002222 [mEh]      -0.00001394 [kcal/mol]      -0.00005833 [kJ/mol]
      Exch12(S^2)                   0.00726666 [mEh]       0.00455990 [kcal/mol]       0.01907861 [kJ/mol]

    Induction                      -0.06345170 [mEh]      -0.03981654 [kcal/mol]      -0.16659241 [kJ/mol]
      Ind20,r                      -0.06002741 [mEh]      -0.03766777 [kcal/mol]      -0.15760195 [kJ/mol]
      Ind22                        -0.00246967 [mEh]      -0.00154974 [kcal/mol]      -0.00648411 [kJ/mol]
      Exch-Ind20,r                  0.00225369 [mEh]       0.00141421 [kcal/mol]       0.00591705 [kJ/mol]
      Exch-Ind22                    0.00009272 [mEh]       0.00005818 [kcal/mol]       0.00024344 [kJ/mol]
      delta HF,r (2)               -0.00330102 [mEh]      -0.00207142 [kcal/mol]      -0.00866684 [kJ/mol]

    Dispersion                     -0.22357930 [mEh]      -0.14029813 [kcal/mol]      -0.58700737 [kJ/mol]
      Disp20                       -0.19701804 [mEh]      -0.12363069 [kcal/mol]      -0.51727079 [kJ/mol]
      Disp21                        0.01013655 [mEh]       0.00636078 [kcal/mol]       0.02661351 [kJ/mol]
      Disp22 (SDQ)                 -0.00177374 [mEh]      -0.00111304 [kcal/mol]      -0.00465697 [kJ/mol]
      Disp22 (T)                   -0.03474359 [mEh]      -0.02180193 [kcal/mol]      -0.09121928 [kJ/mol]
      Est. Disp22 (T)              -0.03681419 [mEh]      -0.02310126 [kcal/mol]      -0.09665565 [kJ/mol]
      Exch-Disp20                   0.00189013 [mEh]       0.00118607 [kcal/mol]       0.00496253 [kJ/mol]

  Total HF                         -1.72896402 [mEh]      -1.08494130 [kcal/mol]      -4.53939441 [kJ/mol]
  Total SAPT0                      -1.92409193 [mEh]      -1.20738592 [kcal/mol]      -5.05170267 [kJ/mol]
  Total SAPT2                      -1.79175255 [mEh]      -1.12434170 [kcal/mol]      -4.70424566 [kJ/mol]
  Total SAPT2+                     -1.82020394 [mEh]      -1.14219521 [kcal/mol]      -4.77894478 [kJ/mol]

  Special recipe for scaled SAPT0 (see Manual):
    Electrostatics sSAPT0          -1.68323108 [mEh]      -1.05624345 [kcal/mol]      -4.41932259 [kJ/mol]
    Exchange sSAPT0                 0.01534181 [mEh]       0.00962713 [kcal/mol]       0.04027991 [kJ/mol]
    Induction sSAPT0               -0.06107463 [mEh]      -0.03832491 [kcal/mol]      -0.16035141 [kJ/mol]
    Dispersion sSAPT0              -0.19512780 [mEh]      -0.12244455 [kcal/mol]      -0.51230798 [kJ/mol]
  Total sSAPT0                     -1.92409170 [mEh]      -1.20738577 [kcal/mol]      -5.05170206 [kJ/mol]
  --------------------------------------------------------------------------------------------------------

*** Psi4 exiting successfully. Buy a developer a beer!
