                               Psi4 1.4a2.dev224

  ==> Input File <==

--------------------------------------------------------------------------
#Generated by lconvert.py for sapt job

memory 50 GB

molecule  {
0 1
  O      -0.525330   -0.050970   -0.314520
  H      -0.942010    0.747900    0.011250
  H       0.403700    0.059790   -0.073570
--
0 1
  O       2.947440    0.040790    0.119810
  H       3.315420   -0.531290    0.797340
  C       3.412440   -0.430840   -1.142340
  H       2.981630    0.220250   -1.895460
  H       4.498410   -0.380050   -1.216660
  H       3.084100   -1.450710   -1.341430
units angstrom
no_reorient
symmetry c1
}

set {
scf_type DF
basis aug-cc-pvtz
freeze_core True
guess SAD
}
energy('sapt2+')
--------------------------------------------------------------------------

  //              Dimer HF             //
    Molecular point group: c1
  Charge       = 0
  Multiplicity = 1
  Basis Set: AUG-CC-PVTZ
    Blend: AUG-CC-PVTZ
  Basis Set: (AUG-CC-PVTZ AUX)
    Blend: AUG-CC-PVTZ-JKFIT
  @DF-RHF Final Energy:  -191.15701963122359
    Total Energy =                       -191.1570196312235907
  //            Monomer A HF           //
    Molecular point group: c1
  Multiplicity = 1
  Basis Set: AUG-CC-PVTZ
    Blend: AUG-CC-PVTZ
  Basis Set: (AUG-CC-PVTZ AUX)
    Blend: AUG-CC-PVTZ-JKFIT
  @DF-RHF Final Energy:   -76.06018618972806
    Total Energy =                        -76.0601861897280571
  //            Monomer B HF           //
    Molecular point group: c1

    Geometry (in Angstrom), charge = 0, multiplicity = 1:

       Center              X                  Y                   Z               Mass
    ------------   -----------------  -----------------  -----------------  -----------------
      Gh(O)          -2.386688173262     0.082480988659     0.096579148985    15.994914619570
      Gh(H)          -2.803368173262     0.881350988659     0.422349148985     1.007825032230
      Gh(H)          -1.457658173262     0.193240988659     0.337529148985     1.007825032230
         O            1.086081826738     0.174240988659     0.530909148985    15.994914619570
         H            1.454061826738    -0.397839011341     1.208439148985     1.007825032230
         C            1.551081826738    -0.297389011341    -0.731240851015    12.000000000000
         H            1.120271826738     0.353700988659    -1.484360851015     1.007825032230
         H            2.637051826738    -0.246599011341    -0.805560851015     1.007825032230
         H            1.222741826738    -1.317259011341    -0.930330851015     1.007825032230

  Charge       = 0
  Multiplicity = 1
  Basis Set: AUG-CC-PVTZ
    Blend: AUG-CC-PVTZ
  Basis Set: (AUG-CC-PVTZ AUX)
    Blend: AUG-CC-PVTZ-JKFIT

    Orbital Energies [Eh]
    ---------------------

    Doubly Occupied:

       1A    -20.558981     2A    -11.270649     3A     -1.356190
       4A     -0.926757     5A     -0.690203     6A     -0.621049
       7A     -0.592181     8A     -0.505418     9A     -0.452631

  @DF-RHF Final Energy:  -115.09206530275790

   => Energetics <=

    Nuclear Repulsion Energy =             40.2947355358239321
    One-Electron Energy =                -236.8254845995455469
    Two-Electron Energy =                  81.4386837609636984
    Total Energy =                       -115.0920653027579021

  Dipole Moment: [D]
     X:     1.0929      Y:    -1.4234      Z:    -0.3237     Total:     1.8235

    SAPT Results
  --------------------------------------------------------------------------------------------------------
    Electrostatics                 -5.12059553 [mEh]      -3.21322221 [kcal/mol]     -13.44412171 [kJ/mol]
      Elst10,r                     -5.32104746 [mEh]      -3.33900769 [kcal/mol]     -13.97040818 [kJ/mol]
      Elst12,r                      0.20045193 [mEh]       0.12578549 [kcal/mol]       0.52628647 [kJ/mol]

    Exchange                        1.57326754 [mEh]       0.98724029 [kcal/mol]       4.13061336 [kJ/mol]
      Exch10                        1.24235385 [mEh]       0.77958881 [kcal/mol]       3.26179958 [kJ/mol]
      Exch10(S^2)                   1.24112264 [mEh]       0.77881621 [kcal/mol]       3.25856703 [kJ/mol]
      Exch11(S^2)                   0.00989842 [mEh]       0.00621135 [kcal/mol]       0.02598829 [kJ/mol]
      Exch12(S^2)                   0.32101528 [mEh]       0.20144013 [kcal/mol]       0.84282550 [kJ/mol]

    Induction                      -0.76364458 [mEh]      -0.47919421 [kcal/mol]      -2.00494856 [kJ/mol]
      Ind20,r                      -0.75453894 [mEh]      -0.47348033 [kcal/mol]      -1.98104171 [kJ/mol]
      Ind22                        -0.10703195 [mEh]      -0.06716356 [kcal/mol]      -0.28101234 [kJ/mol]
      Exch-Ind20,r                  0.23145794 [mEh]       0.14524205 [kcal/mol]       0.60769274 [kJ/mol]
      Exch-Ind22                    0.03283249 [mEh]       0.02060270 [kcal/mol]       0.08620170 [kJ/mol]
      delta HF,r (2)               -0.16636412 [mEh]      -0.10439506 [kcal/mol]      -0.43678895 [kJ/mol]

    Dispersion                     -1.52181395 [mEh]      -0.95495267 [kcal/mol]      -3.99552197 [kJ/mol]
      Disp20                       -1.38626725 [mEh]      -0.86989584 [kcal/mol]      -3.63964417 [kJ/mol]
      Disp21                        0.03526009 [mEh]       0.02212604 [kcal/mol]       0.09257535 [kJ/mol]
      Disp22 (SDQ)                 -0.02734085 [mEh]      -0.01715664 [kcal/mol]      -0.07178338 [kJ/mol]
      Disp22 (T)                   -0.22539862 [mEh]      -0.14143977 [kcal/mol]      -0.59178399 [kJ/mol]
      Est. Disp22 (T)              -0.25355585 [mEh]      -0.15910870 [kcal/mol]      -0.66571080 [kJ/mol]
      Exch-Disp20                   0.11008992 [mEh]       0.06908247 [kcal/mol]       0.28904104 [kJ/mol]

  Total HF                         -4.76813874 [mEh]      -2.99205223 [kcal/mol]     -12.51874653 [kJ/mol]
  Total SAPT0                      -6.04431607 [mEh]      -3.79286560 [kcal/mol]     -15.86934967 [kJ/mol]
  Total SAPT2                      -5.58714990 [mEh]      -3.50598950 [kcal/mol]     -14.66906005 [kJ/mol]
  Total SAPT2+                     -5.83278652 [mEh]      -3.66012880 [kcal/mol]     -15.31397889 [kJ/mol]

  Special recipe for scaled SAPT0 (see Manual):
    Electrostatics sSAPT0          -5.32104746 [mEh]      -3.33900769 [kcal/mol]     -13.97040818 [kJ/mol]
    Exchange sSAPT0                 1.24235385 [mEh]       0.77958881 [kcal/mol]       3.26179958 [kJ/mol]
    Induction sSAPT0               -0.68875561 [mEh]      -0.43220067 [kcal/mol]      -1.80832761 [kJ/mol]
    Dispersion sSAPT0              -1.27584938 [mEh]      -0.80060757 [kcal/mol]      -3.34974208 [kJ/mol]
  Total sSAPT0                     -6.04329860 [mEh]      -3.79222713 [kcal/mol]     -15.86667830 [kJ/mol]
  --------------------------------------------------------------------------------------------------------

*** Psi4 exiting successfully. Buy a developer a beer!
