                               Psi4 1.4a2.dev224

  ==> Input File <==

--------------------------------------------------------------------------
#Generated by lconvert.py for sapt job

memory 50 GB

molecule  {
0 1
  O      -0.525330   -0.050970   -0.314520
  H      -0.942010    0.747900    0.011250
  H       0.403700    0.059790   -0.073570
--
0 1
  O       3.534430    0.036410    0.164440
  H       3.902410   -0.535670    0.841970
  C       3.999440   -0.435220   -1.097720
  H       3.568620    0.215870   -1.850830
  H       5.085400   -0.384430   -1.172030
  H       3.671100   -1.455090   -1.296800
units angstrom
no_reorient
symmetry c1
}

set {
scf_type DF
basis aug-cc-pvtz
freeze_core True
guess SAD
}
energy('sapt2+')
--------------------------------------------------------------------------

  //              Dimer HF             //
    Molecular point group: c1
  Charge       = 0
  Multiplicity = 1
  Basis Set: AUG-CC-PVTZ
    Blend: AUG-CC-PVTZ
  Basis Set: (AUG-CC-PVTZ AUX)
    Blend: AUG-CC-PVTZ-JKFIT
  @DF-RHF Final Energy:  -191.15503861342279
    Total Energy =                       -191.1550386134227892
  //            Monomer A HF           //
    Molecular point group: c1
  Multiplicity = 1
  Basis Set: AUG-CC-PVTZ
    Blend: AUG-CC-PVTZ
  Basis Set: (AUG-CC-PVTZ AUX)
    Blend: AUG-CC-PVTZ-JKFIT
  @DF-RHF Final Energy:   -76.06017044059503
    Total Energy =                        -76.0601704405950301
  //            Monomer B HF           //
    Molecular point group: c1

    Geometry (in Angstrom), charge = 0, multiplicity = 1:

       Center              X                  Y                   Z               Mass
    ------------   -----------------  -----------------  -----------------  -----------------
      Gh(O)          -2.762395764492     0.085284422896     0.068015960458    15.994914619570
      Gh(H)          -3.179075764492     0.884154422896     0.393785960458     1.007825032230
      Gh(H)          -1.833365764492     0.196044422896     0.308965960458     1.007825032230
         O            1.297364235508     0.172664422896     0.546975960458    15.994914619570
         H            1.665344235508    -0.399415577104     1.224505960458     1.007825032230
         C            1.762374235508    -0.298965577104    -0.715184039542    12.000000000000
         H            1.331554235508     0.352124422896    -1.468294039542     1.007825032230
         H            2.848334235508    -0.248175577104    -0.789494039542     1.007825032230
         H            1.434034235508    -1.318835577104    -0.914264039542     1.007825032230

  Charge       = 0
  Multiplicity = 1
  Basis Set: AUG-CC-PVTZ
    Blend: AUG-CC-PVTZ
  Basis Set: (AUG-CC-PVTZ AUX)
    Blend: AUG-CC-PVTZ-JKFIT

    Orbital Energies [Eh]
    ---------------------

    Doubly Occupied:

       1A    -20.559033     2A    -11.270654     3A     -1.356209
       4A     -0.926773     5A     -0.690221     6A     -0.621052
       7A     -0.592195     8A     -0.505435     9A     -0.452633

  @DF-RHF Final Energy:  -115.09202854060669

   => Energetics <=

    Nuclear Repulsion Energy =             40.2946173213696142
    One-Electron Energy =                -236.8248803614483222
    Two-Electron Energy =                  81.4382344994720029
    Total Energy =                       -115.0920285406066910

  Dipole Moment: [D]
     X:     1.0932      Y:    -1.4238      Z:    -0.3239     Total:     1.8240

    SAPT Results
  --------------------------------------------------------------------------------------------------------
    Electrostatics                 -2.62459860 [mEh]      -1.64696049 [kcal/mol]      -6.89088268 [kJ/mol]
      Elst10,r                     -2.79971844 [mEh]      -1.75684984 [kcal/mol]      -7.35065974 [kJ/mol]
      Elst12,r                      0.17511983 [mEh]       0.10988936 [kcal/mol]       0.45977706 [kJ/mol]

    Exchange                        0.18996146 [mEh]       0.11920262 [kcal/mol]       0.49874374 [kJ/mol]
      Exch10                        0.13910148 [mEh]       0.08728750 [kcal/mol]       0.36521089 [kJ/mol]
      Exch10(S^2)                   0.13908223 [mEh]       0.08727542 [kcal/mol]       0.36516035 [kJ/mol]
      Exch11(S^2)                   0.00041302 [mEh]       0.00025918 [kcal/mol]       0.00108439 [kJ/mol]
      Exch12(S^2)                   0.05044695 [mEh]       0.03165594 [kcal/mol]       0.13244846 [kJ/mol]

    Induction                      -0.19289490 [mEh]      -0.12104338 [kcal/mol]      -0.50644550 [kJ/mol]
      Ind20,r                      -0.17863027 [mEh]      -0.11209219 [kcal/mol]      -0.46899371 [kJ/mol]
      Ind22                        -0.01573170 [mEh]      -0.00987179 [kcal/mol]      -0.04130358 [kJ/mol]
      Exch-Ind20,r                  0.02102983 [mEh]       0.01319642 [kcal/mol]       0.05521381 [kJ/mol]
      Exch-Ind22                    0.00185207 [mEh]       0.00116219 [kcal/mol]       0.00486260 [kJ/mol]
      delta HF,r (2)               -0.02141483 [mEh]      -0.01343801 [kcal/mol]      -0.05622462 [kJ/mol]

    Dispersion                     -0.54896916 [mEh]      -0.34448335 [kcal/mol]      -1.44131833 [kJ/mol]
      Disp20                       -0.48251375 [mEh]      -0.30278195 [kcal/mol]      -1.26683968 [kJ/mol]
      Disp21                        0.01718149 [mEh]       0.01078155 [kcal/mol]       0.04510999 [kJ/mol]
      Disp22 (SDQ)                 -0.00789569 [mEh]      -0.00495462 [kcal/mol]      -0.02073014 [kJ/mol]
      Disp22 (T)                   -0.08336636 [mEh]      -0.05231318 [kcal/mol]      -0.21887835 [kJ/mol]
      Est. Disp22 (T)              -0.09050305 [mEh]      -0.05679152 [kcal/mol]      -0.23761571 [kJ/mol]
      Exch-Disp20                   0.01476184 [mEh]       0.00926320 [kcal/mol]       0.03875721 [kJ/mol]

  Total HF                         -2.83963222 [mEh]      -1.78189612 [kcal/mol]      -7.45545337 [kJ/mol]
  Total SAPT0                      -3.30738413 [mEh]      -2.07541488 [kcal/mol]      -8.68353584 [kJ/mol]
  Total SAPT2                      -3.09528396 [mEh]      -1.94232001 [kcal/mol]      -8.12666691 [kJ/mol]
  Total SAPT2+                     -3.17650121 [mEh]      -1.99328460 [kcal/mol]      -8.33990277 [kJ/mol]

  Special recipe for scaled SAPT0 (see Manual):
    Electrostatics sSAPT0          -2.79971844 [mEh]      -1.75684984 [kcal/mol]      -7.35065974 [kJ/mol]
    Exchange sSAPT0                 0.13910148 [mEh]       0.08728750 [kcal/mol]       0.36521089 [kJ/mol]
    Induction sSAPT0               -0.17900653 [mEh]      -0.11232829 [kcal/mol]      -0.46998158 [kJ/mol]
    Dispersion sSAPT0              -0.46774578 [mEh]      -0.29351491 [kcal/mol]      -1.22806637 [kJ/mol]
  Total sSAPT0                     -3.30736927 [mEh]      -2.07540555 [kcal/mol]      -8.68349681 [kJ/mol]
  --------------------------------------------------------------------------------------------------------

*** Psi4 exiting successfully. Buy a developer a beer!
