                               Psi4 1.4a2.dev224

  ==> Input File <==

--------------------------------------------------------------------------
#Generated by lconvert.py for sapt job

memory 50 GB

molecule  {
0 1
  O      -0.687460   -0.111740   -0.019630
  H      -1.046120    0.775940    0.012710
  H       0.274040    0.025850   -0.003500
--
0 1
  N       2.887630    0.128970    0.008970
  H       3.183000   -0.423670   -0.785820
  H       3.197710   -0.381750    0.825830
  C       3.546970    1.437340   -0.031270
  H       3.236430    2.019060    0.833250
  H       4.638280    1.398040   -0.040220
  H       3.220260    1.973250   -0.919090
units angstrom
no_reorient
symmetry c1
}

set {
scf_type DF
basis aug-cc-pvtz
freeze_core True
guess SAD
}
energy('sapt2+')
--------------------------------------------------------------------------

  //              Dimer HF             //
    Molecular point group: c1
  Charge       = 0
  Multiplicity = 1
  Basis Set: AUG-CC-PVTZ
    Blend: AUG-CC-PVTZ
  Basis Set: (AUG-CC-PVTZ AUX)
    Blend: AUG-CC-PVTZ-JKFIT
  @DF-RHF Final Energy:  -171.32131524547896
    Total Energy =                       -171.3213152454789565
  //            Monomer A HF           //
    Molecular point group: c1
  Multiplicity = 1
  Basis Set: AUG-CC-PVTZ
    Blend: AUG-CC-PVTZ
  Basis Set: (AUG-CC-PVTZ AUX)
    Blend: AUG-CC-PVTZ-JKFIT
  @DF-RHF Final Energy:   -76.05991293050329
    Total Energy =                        -76.0599129305032875
  //            Monomer B HF           //
    Molecular point group: c1

    Geometry (in Angstrom), charge = 0, multiplicity = 1:

       Center              X                  Y                   Z               Mass
    ------------   -----------------  -----------------  -----------------  -----------------
      Gh(O)          -2.498525714131    -0.574418433818    -0.006561340350    15.994914619570
      Gh(H)          -2.857185714131     0.313261566182     0.025778659650     1.007825032230
      Gh(H)          -1.537025714131    -0.436828433818     0.009568659650     1.007825032230
         N            1.076564285869    -0.333708433818     0.022038659650    14.003074004430
         H            1.371934285869    -0.886348433818    -0.772751340350     1.007825032230
         H            1.386644285869    -0.844428433818     0.838898659650     1.007825032230
         C            1.735904285869     0.974661566182    -0.018201340350    12.000000000000
         H            1.425364285869     1.556381566182     0.846318659650     1.007825032230
         H            2.827214285869     0.935361566182    -0.027151340350     1.007825032230
         H            1.409194285869     1.510571566182    -0.906021340350     1.007825032230

  Charge       = 0
  Multiplicity = 1
  Basis Set: AUG-CC-PVTZ
    Blend: AUG-CC-PVTZ
  Basis Set: (AUG-CC-PVTZ AUX)
    Blend: AUG-CC-PVTZ-JKFIT

    Orbital Energies [Eh]
    ---------------------

    Doubly Occupied:

       1A    -15.540021     2A    -11.240272     3A     -1.170370
       4A     -0.896641     5A     -0.661471     6A     -0.604133
       7A     -0.555647     8A     -0.517380     9A     -0.393562

  @DF-RHF Final Energy:   -95.25548494213956

   => Energetics <=

    Nuclear Repulsion Energy =             42.0625942659169709
    One-Electron Energy =                -211.4771598580343266
    Two-Electron Energy =                  74.1590806499777955
    Total Energy =                        -95.2554849421395602

  Dipole Moment: [D]
     X:     1.4358      Y:    -0.2047      Z:    -0.0079     Total:     1.4503

    SAPT Results
  --------------------------------------------------------------------------------------------------------
    Electrostatics                 -6.93067842 [mEh]      -4.34906637 [kcal/mol]     -18.19649369 [kJ/mol]
      Elst10,r                     -6.97433441 [mEh]      -4.37646091 [kcal/mol]     -18.31111247 [kJ/mol]
      Elst12,r                      0.04365599 [mEh]       0.02739455 [kcal/mol]       0.11461878 [kJ/mol]

    Exchange                        2.62952648 [mEh]       1.65005278 [kcal/mol]       6.90382082 [kJ/mol]
      Exch10                        2.21522330 [mEh]       1.39007361 [kcal/mol]       5.81606797 [kJ/mol]
      Exch10(S^2)                   2.21089173 [mEh]       1.38735551 [kcal/mol]       5.80469544 [kJ/mol]
      Exch11(S^2)                   0.04807725 [mEh]       0.03016893 [kcal/mol]       0.12622681 [kJ/mol]
      Exch12(S^2)                   0.36622593 [mEh]       0.22981024 [kcal/mol]       0.96152604 [kJ/mol]

    Induction                      -1.25706404 [mEh]      -0.78881960 [kcal/mol]      -3.30042119 [kJ/mol]
      Ind20,r                      -1.42752863 [mEh]      -0.89578774 [kcal/mol]      -3.74797590 [kJ/mol]
      Ind22                        -0.17091193 [mEh]      -0.10724885 [kcal/mol]      -0.44872920 [kJ/mol]
      Exch-Ind20,r                  0.60228992 [mEh]       0.37794263 [kcal/mol]       1.58131197 [kJ/mol]
      Exch-Ind22                    0.07210961 [mEh]       0.04524946 [kcal/mol]       0.18932375 [kJ/mol]
      delta HF,r (2)               -0.33302302 [mEh]      -0.20897510 [kcal/mol]      -0.87435181 [kJ/mol]

    Dispersion                     -1.77880249 [mEh]      -1.11621541 [kcal/mol]      -4.67024529 [kJ/mol]
      Disp20                       -1.66701100 [mEh]      -1.04606519 [kcal/mol]      -4.37673677 [kJ/mol]
      Disp21                        0.00191314 [mEh]       0.00120051 [kcal/mol]       0.00502295 [kJ/mol]
      Disp22 (SDQ)                 -0.01003732 [mEh]      -0.00629851 [kcal/mol]      -0.02635297 [kJ/mol]
      Disp22 (T)                   -0.26271317 [mEh]      -0.16485500 [kcal/mol]      -0.68975332 [kJ/mol]
      Est. Disp22 (T)              -0.30572825 [mEh]      -0.19184737 [kcal/mol]      -0.80268940 [kJ/mol]
      Exch-Disp20                   0.20206093 [mEh]       0.12679515 [kcal/mol]       0.53051090 [kJ/mol]

  Total HF                         -5.91737284 [mEh]      -3.71320751 [kcal/mol]     -15.53606024 [kJ/mol]
  Total SAPT0                      -7.38232290 [mEh]      -4.63247756 [kcal/mol]     -19.38228611 [kJ/mol]
  Total SAPT2                      -7.02316605 [mEh]      -4.40710323 [kcal/mol]     -18.43931993 [kJ/mol]
  Total SAPT2+                     -7.33701848 [mEh]      -4.60404860 [kcal/mol]     -19.26333935 [kJ/mol]

  Special recipe for scaled SAPT0 (see Manual):
    Electrostatics sSAPT0          -6.97433441 [mEh]      -4.37646091 [kcal/mol]     -18.31111247 [kJ/mol]
    Exchange sSAPT0                 2.21522330 [mEh]       1.39007361 [kcal/mol]       5.81606797 [kJ/mol]
    Induction sSAPT0               -1.15471478 [mEh]      -0.72459446 [kcal/mol]      -3.03170323 [kJ/mol]
    Dispersion sSAPT0              -1.46376011 [mEh]      -0.91852334 [kcal/mol]      -3.84310164 [kJ/mol]
  Total sSAPT0                     -7.37758600 [mEh]      -4.62950511 [kcal/mol]     -19.36984937 [kJ/mol]
  --------------------------------------------------------------------------------------------------------

*** Psi4 exiting successfully. Buy a developer a beer!
