                               Psi4 1.4a2.dev224

  ==> Input File <==

--------------------------------------------------------------------------
#Generated by lconvert.py for sapt job

memory 50 GB

molecule  {
0 1
  O      -0.687460   -0.111740   -0.019630
  H      -1.046120    0.775940    0.012710
  H       0.274040    0.025850   -0.003500
--
0 1
  N       4.093860    0.176560    0.014730
  H       4.389220   -0.376070   -0.780070
  H       4.403940   -0.334160    0.831590
  C       4.753200    1.484930   -0.025520
  H       4.442650    2.066650    0.839000
  H       5.844500    1.445630   -0.034470
  H       4.426480    2.020850   -0.913340
units angstrom
no_reorient
symmetry c1
}

set {
scf_type DF
basis aug-cc-pvtz
freeze_core True
guess SAD
}
energy('sapt2+')
--------------------------------------------------------------------------

  //              Dimer HF             //
    Molecular point group: c1
  Charge       = 0
  Multiplicity = 1
  Basis Set: AUG-CC-PVTZ
    Blend: AUG-CC-PVTZ
  Basis Set: (AUG-CC-PVTZ AUX)
    Blend: AUG-CC-PVTZ-JKFIT
  @DF-RHF Final Energy:  -171.31740260658719
    Total Energy =                       -171.3174026065871942
  //            Monomer A HF           //
    Molecular point group: c1
  Multiplicity = 1
  Basis Set: AUG-CC-PVTZ
    Blend: AUG-CC-PVTZ
  Basis Set: (AUG-CC-PVTZ AUX)
    Blend: AUG-CC-PVTZ-JKFIT
  @DF-RHF Final Energy:   -76.05988820833414
    Total Energy =                        -76.0598882083341437
  //            Monomer B HF           //
    Molecular point group: c1

    Geometry (in Angstrom), charge = 0, multiplicity = 1:

       Center              X                  Y                   Z               Mass
    ------------   -----------------  -----------------  -----------------  -----------------
      Gh(O)          -3.261866831898    -0.604535358918    -0.010203189253    15.994914619570
      Gh(H)          -3.620526831898     0.283144641082     0.022136810747     1.007825032230
      Gh(H)          -2.300366831898    -0.466945358918     0.005926810747     1.007825032230
         N            1.519453168102    -0.316235358918     0.024156810747    14.003074004430
         H            1.814813168102    -0.868865358918    -0.770643189253     1.007825032230
         H            1.829533168102    -0.826955358918     0.841016810747     1.007825032230
         C            2.178793168102     0.992134641082    -0.016093189253    12.000000000000
         H            1.868243168102     1.573854641082     0.848426810747     1.007825032230
         H            3.270093168102     0.952834641082    -0.025043189253     1.007825032230
         H            1.852073168102     1.528054641082    -0.903913189253     1.007825032230

  Charge       = 0
  Multiplicity = 1
  Basis Set: AUG-CC-PVTZ
    Blend: AUG-CC-PVTZ
  Basis Set: (AUG-CC-PVTZ AUX)
    Blend: AUG-CC-PVTZ-JKFIT

    Orbital Energies [Eh]
    ---------------------

    Doubly Occupied:

       1A    -15.540026     2A    -11.240271     3A     -1.170369
       4A     -0.896640     5A     -0.661473     6A     -0.604134
       7A     -0.555648     8A     -0.517379     9A     -0.393560

  @DF-RHF Final Energy:   -95.25547023489924

   => Energetics <=

    Nuclear Repulsion Energy =             42.0625924713318895
    One-Electron Energy =                -211.4771249537453741
    Two-Electron Energy =                  74.1590622475142425
    Total Energy =                        -95.2554702348992350

  Dipole Moment: [D]
     X:     1.4357      Y:    -0.2048      Z:    -0.0079     Total:     1.4502

    SAPT Results
  --------------------------------------------------------------------------------------------------------
    Electrostatics                 -1.91666144 [mEh]      -1.20272321 [kcal/mol]      -5.03219393 [kJ/mol]
      Elst10,r                     -1.98724925 [mEh]      -1.24701773 [kcal/mol]      -5.21752218 [kJ/mol]
      Elst12,r                      0.07058780 [mEh]       0.04429452 [kcal/mol]       0.18532825 [kJ/mol]

    Exchange                        0.05522830 [mEh]       0.03465628 [kcal/mol]       0.14500187 [kJ/mol]
      Exch10                        0.04134634 [mEh]       0.02594522 [kcal/mol]       0.10855480 [kJ/mol]
      Exch10(S^2)                   0.04134411 [mEh]       0.02594382 [kcal/mol]       0.10854895 [kJ/mol]
      Exch11(S^2)                   0.00077376 [mEh]       0.00048554 [kcal/mol]       0.00203151 [kJ/mol]
      Exch12(S^2)                   0.01310819 [mEh]       0.00822552 [kcal/mol]       0.03441556 [kJ/mol]

    Induction                      -0.10478441 [mEh]      -0.06575321 [kcal/mol]      -0.27511143 [kJ/mol]
      Ind20,r                      -0.10042419 [mEh]      -0.06301713 [kcal/mol]      -0.26366366 [kJ/mol]
      Ind22                        -0.00726556 [mEh]      -0.00455921 [kcal/mol]      -0.01907572 [kJ/mol]
      Exch-Ind20,r                  0.01025032 [mEh]       0.00643217 [kcal/mol]       0.02691220 [kJ/mol]
      Exch-Ind22                    0.00074160 [mEh]       0.00046536 [kcal/mol]       0.00194706 [kJ/mol]
      delta HF,r (2)               -0.00808658 [mEh]      -0.00507441 [kcal/mol]      -0.02123131 [kJ/mol]

    Dispersion                     -0.25140292 [mEh]      -0.15775771 [kcal/mol]      -0.66005828 [kJ/mol]
      Disp20                       -0.21785882 [mEh]      -0.13670847 [kcal/mol]      -0.57198825 [kJ/mol]
      Disp21                        0.00489656 [mEh]       0.00307264 [kcal/mol]       0.01285591 [kJ/mol]
      Disp22 (SDQ)                 -0.00148558 [mEh]      -0.00093222 [kcal/mol]      -0.00390039 [kJ/mol]
      Disp22 (T)                   -0.03805959 [mEh]      -0.02388275 [kcal/mol]      -0.09992543 [kJ/mol]
      Est. Disp22 (T)              -0.04191554 [mEh]      -0.02630240 [kcal/mol]      -0.11004924 [kJ/mol]
      Exch-Disp20                   0.00496046 [mEh]       0.00311274 [kcal/mol]       0.01302369 [kJ/mol]

  Total HF                         -2.04416335 [mEh]      -1.28273187 [kcal/mol]      -5.36695015 [kJ/mol]
  Total SAPT0                      -2.25706171 [mEh]      -1.41632761 [kcal/mol]      -5.92591471 [kJ/mol]
  Total SAPT2                      -2.17911592 [mEh]      -1.36741588 [kcal/mol]      -5.72126805 [kJ/mol]
  Total SAPT2+                     -2.21762048 [mEh]      -1.39157786 [kcal/mol]      -5.82236177 [kJ/mol]

  Special recipe for scaled SAPT0 (see Manual):
    Electrostatics sSAPT0          -1.98724925 [mEh]      -1.24701773 [kcal/mol]      -5.21752218 [kJ/mol]
    Exchange sSAPT0                 0.04134634 [mEh]       0.02594522 [kcal/mol]       0.10855480 [kJ/mol]
    Induction sSAPT0               -0.09825879 [mEh]      -0.06165832 [kcal/mol]      -0.25797842 [kJ/mol]
    Dispersion sSAPT0              -0.21289756 [mEh]      -0.13359523 [kcal/mol]      -0.55896245 [kJ/mol]
  Total sSAPT0                     -2.25705925 [mEh]      -1.41632606 [kcal/mol]      -5.92590824 [kJ/mol]
  --------------------------------------------------------------------------------------------------------

*** Psi4 exiting successfully. Buy a developer a beer!
