                               Psi4 1.4a2.dev224

  ==> Input File <==

--------------------------------------------------------------------------
#Generated by lconvert.py for sapt job

memory 50 GB

molecule  {
0 1
  O      -0.687460   -0.111740   -0.019630
  H      -1.046120    0.775940    0.012710
  H       0.274040    0.025850   -0.003500
--
0 1
  N       3.490750    0.152770    0.011850
  H       3.786110   -0.399870   -0.782940
  H       3.800830   -0.357950    0.828710
  C       4.150080    1.461130   -0.028390
  H       3.839540    2.042860    0.836120
  H       5.241390    1.421840   -0.037350
  H       3.823370    1.997050   -0.916220
units angstrom
no_reorient
symmetry c1
}

set {
scf_type DF
basis aug-cc-pvtz
freeze_core True
guess SAD
}
energy('sapt2+')
--------------------------------------------------------------------------

  //              Dimer HF             //
    Molecular point group: c1
  Charge       = 0
  Multiplicity = 1
  Basis Set: AUG-CC-PVTZ
    Blend: AUG-CC-PVTZ
  Basis Set: (AUG-CC-PVTZ AUX)
    Blend: AUG-CC-PVTZ-JKFIT
  @DF-RHF Final Energy:  -171.31883591208162
    Total Energy =                       -171.3188359120816244
  //            Monomer A HF           //
    Molecular point group: c1
  Multiplicity = 1
  Basis Set: AUG-CC-PVTZ
    Blend: AUG-CC-PVTZ
  Basis Set: (AUG-CC-PVTZ AUX)
    Blend: AUG-CC-PVTZ-JKFIT
  @DF-RHF Final Energy:   -76.05989423313916
    Total Energy =                        -76.0598942331391470
  //            Monomer B HF           //
    Molecular point group: c1

    Geometry (in Angstrom), charge = 0, multiplicity = 1:

       Center              X                  Y                   Z               Mass
    ------------   -----------------  -----------------  -----------------  -----------------
      Gh(O)          -2.880196579918    -0.589477408729    -0.008383282517    15.994914619570
      Gh(H)          -3.238856579918     0.298202591271     0.023956717483     1.007825032230
      Gh(H)          -1.918696579918    -0.451887408729     0.007746717483     1.007825032230
         N            1.298013420082    -0.324967408729     0.023096717483    14.003074004430
         H            1.593373420082    -0.877607408729    -0.771693282517     1.007825032230
         H            1.608093420082    -0.835687408729     0.839956717483     1.007825032230
         C            1.957343420082     0.983392591271    -0.017143282517    12.000000000000
         H            1.646803420082     1.565122591271     0.847366717483     1.007825032230
         H            3.048653420082     0.944102591271    -0.026103282517     1.007825032230
         H            1.630633420082     1.519312591271    -0.904973282517     1.007825032230

  Charge       = 0
  Multiplicity = 1
  Basis Set: AUG-CC-PVTZ
    Blend: AUG-CC-PVTZ
  Basis Set: (AUG-CC-PVTZ AUX)
    Blend: AUG-CC-PVTZ-JKFIT

    Orbital Energies [Eh]
    ---------------------

    Doubly Occupied:

       1A    -15.540026     2A    -11.240272     3A     -1.170375
       4A     -0.896640     5A     -0.661475     6A     -0.604135
       7A     -0.555652     8A     -0.517378     9A     -0.393560

  @DF-RHF Final Energy:   -95.25547737430105

   => Energetics <=

    Nuclear Repulsion Energy =             42.0627402973113504
    One-Electron Energy =                -211.4774068619637717
    Two-Electron Energy =                  74.1591891903513556
    Total Energy =                        -95.2554773743010514

  Dipole Moment: [D]
     X:     1.4359      Y:    -0.2047      Z:    -0.0079     Total:     1.4504

    SAPT Results
  --------------------------------------------------------------------------------------------------------
    Electrostatics                 -3.38170554 [mEh]      -2.12205227 [kcal/mol]      -8.87866668 [kJ/mol]
      Elst10,r                     -3.46627828 [mEh]      -2.17512246 [kcal/mol]      -9.10071237 [kJ/mol]
      Elst12,r                      0.08457274 [mEh]       0.05307019 [kcal/mol]       0.22204569 [kJ/mol]

    Exchange                        0.38283460 [mEh]       0.24023234 [kcal/mol]       1.00513211 [kJ/mol]
      Exch10                        0.30391681 [mEh]       0.19071068 [kcal/mol]       0.79793347 [kJ/mol]
      Exch10(S^2)                   0.30381665 [mEh]       0.19064783 [kcal/mol]       0.79767051 [kJ/mol]
      Exch11(S^2)                   0.00605538 [mEh]       0.00379981 [kcal/mol]       0.01589840 [kJ/mol]
      Exch12(S^2)                   0.07286241 [mEh]       0.04572186 [kcal/mol]       0.19130024 [kJ/mol]

    Induction                      -0.32784534 [mEh]      -0.20572606 [kcal/mol]      -0.86075782 [kJ/mol]
      Ind20,r                      -0.32875918 [mEh]      -0.20629950 [kcal/mol]      -0.86315712 [kJ/mol]
      Ind22                        -0.03375702 [mEh]      -0.02118285 [kcal/mol]      -0.08862904 [kJ/mol]
      Exch-Ind20,r                  0.07649826 [mEh]       0.04800338 [kcal/mol]       0.20084614 [kJ/mol]
      Exch-Ind22                    0.00785485 [mEh]       0.00492899 [kcal/mol]       0.02062290 [kJ/mol]
      delta HF,r (2)               -0.04968224 [mEh]      -0.03117608 [kcal/mol]      -0.13044071 [kJ/mol]

    Dispersion                     -0.63595773 [mEh]      -0.39906950 [kcal/mol]      -1.66970678 [kJ/mol]
      Disp20                       -0.55922309 [mEh]      -0.35091779 [kcal/mol]      -1.46824002 [kJ/mol]
      Disp21                        0.00316170 [mEh]       0.00198400 [kcal/mol]       0.00830105 [kJ/mol]
      Disp22 (SDQ)                 -0.00520970 [mEh]      -0.00326913 [kcal/mol]      -0.01367806 [kJ/mol]
      Disp22 (T)                   -0.09377791 [mEh]      -0.05884653 [kcal/mol]      -0.24621387 [kJ/mol]
      Est. Disp22 (T)              -0.10696143 [mEh]      -0.06711931 [kcal/mol]      -0.28082719 [kJ/mol]
      Exch-Disp20                   0.03227478 [mEh]       0.02025273 [kcal/mol]       0.08473743 [kJ/mol]

  Total HF                         -3.46430464 [mEh]      -2.17388398 [kcal/mol]      -9.09553058 [kJ/mol]
  Total SAPT0                      -3.99125295 [mEh]      -2.50454904 [kcal/mol]     -10.47903318 [kJ/mol]
  Total SAPT2                      -3.85366459 [mEh]      -2.41821104 [kcal/mol]     -10.11779498 [kJ/mol]
  Total SAPT2+                     -3.96267401 [mEh]      -2.48661548 [kcal/mol]     -10.40399917 [kJ/mol]

  Special recipe for scaled SAPT0 (see Manual):
    Electrostatics sSAPT0          -3.46627828 [mEh]      -2.17512246 [kcal/mol]      -9.10071237 [kJ/mol]
    Exchange sSAPT0                 0.30391681 [mEh]       0.19071068 [kcal/mol]       0.79793347 [kJ/mol]
    Induction sSAPT0               -0.30186749 [mEh]      -0.18942471 [kcal/mol]      -0.79255299 [kJ/mol]
    Dispersion sSAPT0              -0.52691638 [mEh]      -0.33064502 [kcal/mol]      -1.38341876 [kJ/mol]
  Total sSAPT0                     -3.99114534 [mEh]      -2.50448151 [kcal/mol]     -10.47875065 [kJ/mol]
  --------------------------------------------------------------------------------------------------------

*** Psi4 exiting successfully. Buy a developer a beer!
