                               Psi4 1.4a2.dev224

  ==> Input File <==

--------------------------------------------------------------------------
#Generated by lconvert.py for sapt job

memory 50 GB

molecule  {
0 1
  O      -0.392020   -0.384720    0.076070
  H      -0.911460    0.413810    0.177650
  H       0.524900   -0.068490    0.090510
--
0 1
  C       3.377180   -2.120250   -0.250480
  H       4.027140   -2.981360   -0.383390
  H       2.696200   -2.042780   -1.094340
  H       2.764160   -2.259050    0.636530
  C       4.131910   -0.822240   -0.117890
  O       3.555200    0.253060    0.038700
  N       5.482550   -0.919740   -0.182500
  H       5.883500   -1.830270   -0.312020
  C       6.350790    0.232230   -0.073060
  H       5.714290    1.100530    0.061730
  H       7.016380    0.140780    0.783030
  H       6.945250    0.361650   -0.975320
units angstrom
no_reorient
symmetry c1
}

set {
scf_type DF
basis aug-cc-pvtz
freeze_core True
guess SAD
}
energy('sapt2+')
--------------------------------------------------------------------------

  //              Dimer HF             //
    Molecular point group: c1
  Charge       = 0
  Multiplicity = 1
  Basis Set: AUG-CC-PVTZ
    Blend: AUG-CC-PVTZ
  Basis Set: (AUG-CC-PVTZ AUX)
    Blend: AUG-CC-PVTZ-JKFIT
  @DF-RHF Final Energy:  -323.16714907054575
    Total Energy =                       -323.1671490705457472
  //            Monomer A HF           //
    Molecular point group: c1
  Multiplicity = 1
  Basis Set: AUG-CC-PVTZ
    Blend: AUG-CC-PVTZ
  Basis Set: (AUG-CC-PVTZ AUX)
    Blend: AUG-CC-PVTZ-JKFIT
  @DF-RHF Final Energy:   -76.05998203451375
    Total Energy =                        -76.0599820345137516
  //            Monomer B HF           //
    Molecular point group: c1

    Geometry (in Angstrom), charge = 0, multiplicity = 1:

       Center              X                  Y                   Z               Mass
    ------------   -----------------  -----------------  -----------------  -----------------
      Gh(O)          -4.000689825000     0.216284228479     0.153384897528    15.994914619570
      Gh(H)          -4.520129825000     1.014814228479     0.254964897528     1.007825032230
      Gh(H)          -3.083769825000     0.532514228479     0.167824897528     1.007825032230
         C           -0.231489825000    -1.519245771521    -0.173165102472    12.000000000000
         H            0.418470175000    -2.380355771521    -0.306075102472     1.007825032230
         H           -0.912469825000    -1.441775771521    -1.017025102472     1.007825032230
         H           -0.844509825000    -1.658045771521     0.713844897528     1.007825032230
         C            0.523240175000    -0.221235771521    -0.040575102472    12.000000000000
         O           -0.053469825000     0.854064228479     0.116014897528    15.994914619570
         N            1.873880175000    -0.318735771521    -0.105185102472    14.003074004430
         H            2.274830175000    -1.229265771521    -0.234705102472     1.007825032230
         C            2.742120175000     0.833234228479     0.004254897528    12.000000000000
         H            2.105620175000     1.701534228479     0.139044897528     1.007825032230
         H            3.407710175000     0.741784228479     0.860344897528     1.007825032230
         H            3.336580175000     0.962654228479    -0.898005102472     1.007825032230

  Charge       = 0
  Multiplicity = 1
  Basis Set: AUG-CC-PVTZ
    Blend: AUG-CC-PVTZ
  Basis Set: (AUG-CC-PVTZ AUX)
    Blend: AUG-CC-PVTZ-JKFIT

    Orbital Energies [Eh]
    ---------------------

    Doubly Occupied:

       1A    -20.508258     2A    -15.587502     3A    -11.346983
       4A    -11.256179     5A    -11.235444     6A     -1.369901
       7A     -1.230704     8A     -1.019977     9A     -0.933678
      10A     -0.789953    11A     -0.691008    12A     -0.652219
      13A     -0.633369    14A     -0.587086    15A     -0.578272
      16A     -0.556993    17A     -0.544595    18A     -0.502698
      19A     -0.419440    20A     -0.390960

  @DF-RHF Final Energy:  -247.10247317054046

   => Energetics <=

    Nuclear Repulsion Energy =            180.5607523402516392
    One-Electron Energy =                -693.6560101698456720
    Two-Electron Energy =                 265.9927846590535978
    Total Energy =                       -247.1024731705404633

  Dipole Moment: [D]
     X:     2.6333      Y:    -3.2146      Z:    -0.5043     Total:     4.1860

    SAPT Results
  --------------------------------------------------------------------------------------------------------
    Electrostatics                 -4.08586788 [mEh]      -2.56392080 [kcal/mol]     -10.72744464 [kJ/mol]
      Elst10,r                     -4.63850970 [mEh]      -2.91070878 [kcal/mol]     -12.17840553 [kJ/mol]
      Elst12,r                      0.55264182 [mEh]       0.34678798 [kcal/mol]       1.45096089 [kJ/mol]

    Exchange                        0.42698192 [mEh]       0.26793520 [kcal/mol]       1.12104088 [kJ/mol]
      Exch10                        0.31799816 [mEh]       0.19954686 [kcal/mol]       0.83490406 [kJ/mol]
      Exch10(S^2)                   0.31792166 [mEh]       0.19949886 [kcal/mol]       0.83470321 [kJ/mol]
      Exch11(S^2)                   0.00172091 [mEh]       0.00107989 [kcal/mol]       0.00451825 [kJ/mol]
      Exch12(S^2)                   0.10726285 [mEh]       0.06730845 [kcal/mol]       0.28161858 [kJ/mol]

    Induction                      -0.40093452 [mEh]      -0.25159021 [kcal/mol]      -1.05265345 [kJ/mol]
      Ind20,r                      -0.38415601 [mEh]      -0.24106153 [kcal/mol]      -1.00860146 [kJ/mol]
      Ind22                        -0.03255199 [mEh]      -0.02042668 [kcal/mol]      -0.08546525 [kJ/mol]
      Exch-Ind20,r                  0.05866929 [mEh]       0.03681553 [kcal/mol]       0.15403619 [kJ/mol]
      Exch-Ind22                    0.00497142 [mEh]       0.00311962 [kcal/mol]       0.01305247 [kJ/mol]
      delta HF,r (2)               -0.04786723 [mEh]      -0.03003714 [kcal/mol]      -0.12567540 [kJ/mol]

    Dispersion                     -1.05404157 [mEh]      -0.66142107 [kcal/mol]      -2.76738577 [kJ/mol]
      Disp20                       -0.94244456 [mEh]      -0.59139289 [kcal/mol]      -2.47438784 [kJ/mol]
      Disp21                        0.05133100 [mEh]       0.03221069 [kcal/mol]       0.13476953 [kJ/mol]
      Disp22 (SDQ)                 -0.01113506 [mEh]      -0.00698735 [kcal/mol]      -0.02923509 [kJ/mol]
      Disp22 (T)                   -0.17201275 [mEh]      -0.10793963 [kcal/mol]      -0.45161942 [kJ/mol]
      Est. Disp22 (T)              -0.18753880 [mEh]      -0.11768238 [kcal/mol]      -0.49238306 [kJ/mol]
      Exch-Disp20                   0.03574584 [mEh]       0.02243085 [kcal/mol]       0.09385069 [kJ/mol]

  Total HF                         -4.69386549 [mEh]      -2.94544506 [kcal/mol]     -12.32374215 [kJ/mol]
  Total SAPT0                      -5.60056421 [mEh]      -3.51440710 [kcal/mol]     -14.70427930 [kJ/mol]
  Total SAPT2                      -4.96651920 [mEh]      -3.11653785 [kcal/mol]     -13.03959436 [kJ/mol]
  Total SAPT2+                     -5.11386206 [mEh]      -3.20899689 [kcal/mol]     -13.42644298 [kJ/mol]

  Special recipe for scaled SAPT0 (see Manual):
    Electrostatics sSAPT0          -4.63850970 [mEh]      -2.91070878 [kcal/mol]     -12.17840553 [kJ/mol]
    Exchange sSAPT0                 0.31799816 [mEh]       0.19954686 [kcal/mol]       0.83490406 [kJ/mol]
    Induction sSAPT0               -0.37331159 [mEh]      -0.23425656 [kcal/mol]      -0.98012946 [kJ/mol]
    Dispersion sSAPT0              -0.90667291 [mEh]      -0.56894584 [kcal/mol]      -2.38046939 [kJ/mol]
  Total sSAPT0                     -5.60049604 [mEh]      -3.51436432 [kcal/mol]     -14.70410032 [kJ/mol]
  --------------------------------------------------------------------------------------------------------

*** Psi4 exiting successfully. Buy a developer a beer!
