                               Psi4 1.4a2.dev224

  ==> Input File <==

--------------------------------------------------------------------------
#Generated by lconvert.py for sapt job

memory 50 GB

molecule  {
0 1
  O      -0.392020   -0.384720    0.076070
  H      -0.911460    0.413810    0.177650
  H       0.524900   -0.068490    0.090510
--
0 1
  C       3.945350   -2.059960   -0.260190
  H       4.595310   -2.921070   -0.393110
  H       3.264370   -1.982490   -1.104060
  H       3.332330   -2.198760    0.626820
  C       4.700080   -0.761950   -0.127600
  O       4.123370    0.313340    0.028990
  N       6.050720   -0.859450   -0.192220
  H       6.451670   -1.769990   -0.321730
  C       6.918960    0.292520   -0.082770
  H       6.282460    1.160820    0.052010
  H       7.584550    0.201060    0.773320
  H       7.513420    0.421940   -0.985030
units angstrom
no_reorient
symmetry c1
}

set {
scf_type DF
basis aug-cc-pvtz
freeze_core True
guess SAD
}
energy('sapt2+')
--------------------------------------------------------------------------

  //              Dimer HF             //
    Molecular point group: c1
  Charge       = 0
  Multiplicity = 1
  Basis Set: AUG-CC-PVTZ
    Blend: AUG-CC-PVTZ
  Basis Set: (AUG-CC-PVTZ AUX)
    Blend: AUG-CC-PVTZ-JKFIT
  @DF-RHF Final Energy:  -323.16540820842181
    Total Energy =                       -323.1654082084218089
  //            Monomer A HF           //
    Molecular point group: c1
  Multiplicity = 1
  Basis Set: AUG-CC-PVTZ
    Blend: AUG-CC-PVTZ
  Basis Set: (AUG-CC-PVTZ AUX)
    Blend: AUG-CC-PVTZ-JKFIT
  @DF-RHF Final Energy:   -76.05997389902346
    Total Energy =                        -76.0599738990234613
  //            Monomer B HF           //
    Molecular point group: c1

    Geometry (in Angstrom), charge = 0, multiplicity = 1:

       Center              X                  Y                   Z               Mass
    ------------   -----------------  -----------------  -----------------  -----------------
      Gh(O)          -4.456486790747     0.167920401923     0.161176317125    15.994914619570
      Gh(H)          -4.975926790747     0.966450401923     0.262756317125     1.007825032230
      Gh(H)          -3.539566790747     0.484150401923     0.175616317125     1.007825032230
         C           -0.119116790747    -1.507319598077    -0.175083682875    12.000000000000
         H            0.530843209253    -2.368429598077    -0.308003682875     1.007825032230
         H           -0.800096790747    -1.429849598077    -1.018953682875     1.007825032230
         H           -0.732136790747    -1.646119598077     0.711926317125     1.007825032230
         C            0.635613209253    -0.209309598077    -0.042493682875    12.000000000000
         O            0.058903209253     0.865980401923     0.114096317125    15.994914619570
         N            1.986253209253    -0.306809598077    -0.107113682875    14.003074004430
         H            2.387203209253    -1.217349598077    -0.236623682875     1.007825032230
         C            2.854493209253     0.845160401923     0.002336317125    12.000000000000
         H            2.217993209253     1.713460401923     0.137116317125     1.007825032230
         H            3.520083209253     0.753700401923     0.858426317125     1.007825032230
         H            3.448953209253     0.974580401923    -0.899923682875     1.007825032230

  Charge       = 0
  Multiplicity = 1
  Basis Set: AUG-CC-PVTZ
    Blend: AUG-CC-PVTZ
  Basis Set: (AUG-CC-PVTZ AUX)
    Blend: AUG-CC-PVTZ-JKFIT

    Orbital Energies [Eh]
    ---------------------

    Doubly Occupied:

       1A    -20.508258     2A    -15.587502     3A    -11.346983
       4A    -11.256178     5A    -11.235444     6A     -1.369907
       7A     -1.230703     8A     -1.019977     9A     -0.933677
      10A     -0.789950    11A     -0.691008    12A     -0.652220
      13A     -0.633369    14A     -0.587086    15A     -0.578274
      16A     -0.556992    17A     -0.544595    18A     -0.502700
      19A     -0.419440    20A     -0.390960

  @DF-RHF Final Energy:  -247.10246328786636

   => Energetics <=

    Nuclear Repulsion Energy =            180.5608974000033982
    One-Electron Energy =                -693.6562698975085368
    Two-Electron Energy =                 265.9929092096388672
    Total Energy =                       -247.1024632878663283

  Dipole Moment: [D]
     X:     2.6332      Y:    -3.2146      Z:    -0.5042     Total:     4.1859

    SAPT Results
  --------------------------------------------------------------------------------------------------------
    Electrostatics                 -2.49612790 [mEh]      -1.56634390 [kcal/mol]      -6.55358289 [kJ/mol]
      Elst10,r                     -2.88068025 [mEh]      -1.80765415 [kcal/mol]      -7.56322497 [kJ/mol]
      Elst12,r                      0.38455236 [mEh]       0.24131025 [kcal/mol]       1.00964208 [kJ/mol]

    Exchange                        0.06591666 [mEh]       0.04136333 [kcal/mol]       0.17306416 [kJ/mol]
      Exch10                        0.04636971 [mEh]       0.02909744 [kcal/mol]       0.12174367 [kJ/mol]
      Exch10(S^2)                   0.04636767 [mEh]       0.02909615 [kcal/mol]       0.12173830 [kJ/mol]
      Exch11(S^2)                   0.00018980 [mEh]       0.00011910 [kcal/mol]       0.00049833 [kJ/mol]
      Exch12(S^2)                   0.01935714 [mEh]       0.01214679 [kcal/mol]       0.05082216 [kJ/mol]

    Induction                      -0.14158802 [mEh]      -0.08884782 [kcal/mol]      -0.37173929 [kJ/mol]
      Ind20,r                      -0.13614043 [mEh]      -0.08542941 [kcal/mol]      -0.35743665 [kJ/mol]
      Ind22                        -0.00519120 [mEh]      -0.00325753 [kcal/mol]      -0.01362949 [kJ/mol]
      Exch-Ind20,r                  0.00823923 [mEh]       0.00517020 [kcal/mol]       0.02163210 [kJ/mol]
      Exch-Ind22                    0.00031417 [mEh]       0.00019715 [kcal/mol]       0.00082486 [kJ/mol]
      delta HF,r (2)               -0.00880979 [mEh]      -0.00552823 [kcal/mol]      -0.02313011 [kJ/mol]

    Dispersion                     -0.46707730 [mEh]      -0.29309543 [kcal/mol]      -1.22631127 [kJ/mol]
      Disp20                       -0.41474986 [mEh]      -0.26025947 [kcal/mol]      -1.08892562 [kJ/mol]
      Disp21                        0.02729528 [mEh]       0.01712805 [kcal/mol]       0.07166376 [kJ/mol]
      Disp22 (SDQ)                 -0.00229649 [mEh]      -0.00144107 [kcal/mol]      -0.00602943 [kJ/mol]
      Disp22 (T)                   -0.07847883 [mEh]      -0.04924621 [kcal/mol]      -0.20604613 [kJ/mol]
      Est. Disp22 (T)              -0.08323340 [mEh]      -0.05222975 [kcal/mol]      -0.21852926 [kJ/mol]
      Exch-Disp20                   0.00590717 [mEh]       0.00370681 [kcal/mol]       0.01550928 [kJ/mol]

  Total HF                         -2.97102153 [mEh]      -1.86434416 [kcal/mol]      -7.80041596 [kJ/mol]
  Total SAPT0                      -3.37986422 [mEh]      -2.12089682 [kcal/mol]      -8.87383229 [kJ/mol]
  Total SAPT2                      -2.98064195 [mEh]      -1.87038106 [kcal/mol]      -7.82567435 [kJ/mol]
  Total SAPT2+                     -3.03887655 [mEh]      -1.90692383 [kcal/mol]      -7.97856928 [kJ/mol]

  Special recipe for scaled SAPT0 (see Manual):
    Electrostatics sSAPT0          -2.88068025 [mEh]      -1.80765415 [kcal/mol]      -7.56322497 [kJ/mol]
    Exchange sSAPT0                 0.04636971 [mEh]       0.02909744 [kcal/mol]       0.12174367 [kJ/mol]
    Induction sSAPT0               -0.13670990 [mEh]      -0.08578676 [kcal/mol]      -0.35893180 [kJ/mol]
    Dispersion sSAPT0              -0.40884191 [mEh]      -0.25655217 [kcal/mol]      -1.07341429 [kJ/mol]
  Total sSAPT0                     -3.37986235 [mEh]      -2.12089565 [kcal/mol]      -8.87382738 [kJ/mol]
  --------------------------------------------------------------------------------------------------------

*** Psi4 exiting successfully. Buy a developer a beer!
