                               Psi4 1.4a2.dev224

  ==> Input File <==

--------------------------------------------------------------------------
#Generated by lconvert.py for sapt job

memory 50 GB

molecule  {
0 1
  O      -0.392020   -0.384720    0.076070
  H      -0.911460    0.413810    0.177650
  H       0.524900   -0.068490    0.090510
--
0 1
  C       2.809010   -2.180540   -0.240770
  H       3.458970   -3.041650   -0.373680
  H       2.128030   -2.103070   -1.084630
  H       2.195990   -2.319330    0.646240
  C       3.563740   -0.882530   -0.108170
  O       2.987030    0.192770    0.048420
  N       4.914370   -0.980030   -0.172790
  H       5.315330   -1.890560   -0.302300
  C       5.782620    0.171940   -0.063350
  H       5.146120    1.040240    0.071440
  H       6.448210    0.080490    0.792750
  H       6.377080    0.301360   -0.965610
units angstrom
no_reorient
symmetry c1
}

set {
scf_type DF
basis aug-cc-pvtz
freeze_core True
guess SAD
}
energy('sapt2+')
--------------------------------------------------------------------------

  //              Dimer HF             //
    Molecular point group: c1
  Charge       = 0
  Multiplicity = 1
  Basis Set: AUG-CC-PVTZ
    Blend: AUG-CC-PVTZ
  Basis Set: (AUG-CC-PVTZ AUX)
    Blend: AUG-CC-PVTZ-JKFIT
  @DF-RHF Final Energy:  -323.16997570698845
    Total Energy =                       -323.1699757069884527
  //            Monomer A HF           //
    Molecular point group: c1
  Multiplicity = 1
  Basis Set: AUG-CC-PVTZ
    Blend: AUG-CC-PVTZ
  Basis Set: (AUG-CC-PVTZ AUX)
    Blend: AUG-CC-PVTZ-JKFIT
  @DF-RHF Final Energy:   -76.05999999340726
    Total Energy =                        -76.0599999934072599
  //            Monomer B HF           //
    Molecular point group: c1

    Geometry (in Angstrom), charge = 0, multiplicity = 1:

       Center              X                  Y                   Z               Mass
    ------------   -----------------  -----------------  -----------------  -----------------
      Gh(O)          -3.544891321524     0.264649922169     0.145592052109    15.994914619570
      Gh(H)          -4.064331321524     1.063179922169     0.247172052109     1.007825032230
      Gh(H)          -2.627971321524     0.580879922169     0.160032052109     1.007825032230
         C           -0.343861321524    -1.531170077831    -0.171247947891    12.000000000000
         H            0.306098678476    -2.392280077831    -0.304157947891     1.007825032230
         H           -1.024841321524    -1.453700077831    -1.015107947891     1.007825032230
         H           -0.956881321524    -1.669960077831     0.715762052109     1.007825032230
         C            0.410868678476    -0.233160077831    -0.038647947891    12.000000000000
         O           -0.165841321524     0.842139922169     0.117942052109    15.994914619570
         N            1.761498678476    -0.330660077831    -0.103267947891    14.003074004430
         H            2.162458678476    -1.241190077831    -0.232777947891     1.007825032230
         C            2.629748678476     0.821309922169     0.006172052109    12.000000000000
         H            1.993248678476     1.689609922169     0.140962052109     1.007825032230
         H            3.295338678476     0.729859922169     0.862272052109     1.007825032230
         H            3.224208678476     0.950729922169    -0.896087947891     1.007825032230

  Charge       = 0
  Multiplicity = 1
  Basis Set: AUG-CC-PVTZ
    Blend: AUG-CC-PVTZ
  Basis Set: (AUG-CC-PVTZ AUX)
    Blend: AUG-CC-PVTZ-JKFIT

    Orbital Energies [Eh]
    ---------------------

    Doubly Occupied:

       1A    -20.508249     2A    -15.587501     3A    -11.346980
       4A    -11.256182     5A    -11.235442     6A     -1.369898
       7A     -1.230704     8A     -1.019975     9A     -0.933678
      10A     -0.789954    11A     -0.691006    12A     -0.652217
      13A     -0.633368    14A     -0.587085    15A     -0.578270
      16A     -0.556991    17A     -0.544596    18A     -0.502696
      19A     -0.419442    20A     -0.390958

  @DF-RHF Final Energy:  -247.10249283458617

   => Energetics <=

    Nuclear Repulsion Energy =            180.5608375487525734
    One-Electron Energy =                -693.6562723935664962
    Two-Electron Energy =                 265.9929420102276936
    Total Energy =                       -247.1024928345862008

  Dipole Moment: [D]
     X:     2.6332      Y:    -3.2146      Z:    -0.5042     Total:     4.1859

    SAPT Results
  --------------------------------------------------------------------------------------------------------
    Electrostatics                 -7.64122294 [mEh]      -4.79493979 [kcal/mol]     -20.06202806 [kJ/mol]
      Elst10,r                     -8.40716816 [mEh]      -5.27557767 [kcal/mol]     -22.07301698 [kJ/mol]
      Elst12,r                      0.76594523 [mEh]       0.48063789 [kcal/mol]       2.01098891 [kJ/mol]

    Exchange                        2.77444299 [mEh]       1.74098926 [kcal/mol]       7.28429907 [kJ/mol]
      Exch10                        2.19797535 [mEh]       1.37925035 [kcal/mol]       5.77078348 [kJ/mol]
      Exch10(S^2)                   2.19502329 [mEh]       1.37739791 [kcal/mol]       5.76303285 [kJ/mol]
      Exch11(S^2)                   0.01872709 [mEh]       0.01175143 [kcal/mol]       0.04916797 [kJ/mol]
      Exch12(S^2)                   0.55774055 [mEh]       0.34998748 [kcal/mol]       1.46434762 [kJ/mol]

    Induction                      -1.40399622 [mEh]      -0.88102093 [kcal/mol]      -3.68619158 [kJ/mol]
      Ind20,r                      -1.43245034 [mEh]      -0.89887616 [kcal/mol]      -3.76089786 [kJ/mol]
      Ind22                        -0.19249525 [mEh]      -0.12079259 [kcal/mol]      -0.50539620 [kJ/mol]
      Exch-Ind20,r                  0.46275017 [mEh]       0.29038012 [kcal/mol]       1.21495041 [kJ/mol]
      Exch-Ind22                    0.06218520 [mEh]       0.03902180 [kcal/mol]       0.16326721 [kJ/mol]
      delta HF,r (2)               -0.30398601 [mEh]      -0.19075410 [kcal/mol]      -0.79811515 [kJ/mol]

    Dispersion                     -2.60037245 [mEh]      -1.63175835 [kcal/mol]      -6.82727692 [kJ/mol]
      Disp20                       -2.41837101 [mEh]      -1.51755072 [kcal/mol]      -6.34943220 [kJ/mol]
      Disp21                        0.11753565 [mEh]       0.07375473 [kcal/mol]       0.30858981 [kJ/mol]
      Disp22 (SDQ)                 -0.03947391 [mEh]      -0.02477025 [kcal/mol]      -0.10363874 [kJ/mol]
      Disp22 (T)                   -0.41969607 [mEh]      -0.26336326 [kcal/mol]      -1.10191189 [kJ/mol]
      Est. Disp22 (T)              -0.47014643 [mEh]      -0.29502134 [kcal/mol]      -1.23436928 [kJ/mol]
      Exch-Disp20                   0.21008325 [mEh]       0.13182923 [kcal/mol]       0.55157349 [kJ/mol]

  Total HF                         -7.48287900 [mEh]      -4.69557746 [kcal/mol]     -19.64629609 [kJ/mol]
  Total SAPT0                      -9.69116675 [mEh]      -6.08129895 [kcal/mol]     -25.44415481 [kJ/mol]
  Total SAPT2                      -8.47906393 [mEh]      -5.32069295 [kcal/mol]     -22.26177928 [kJ/mol]
  Total SAPT2+                     -8.87114862 [mEh]      -5.56672980 [kcal/mol]     -23.29119749 [kJ/mol]

  Special recipe for scaled SAPT0 (see Manual):
    Electrostatics sSAPT0          -8.40716816 [mEh]      -5.27557767 [kcal/mol]     -22.07301698 [kJ/mol]
    Exchange sSAPT0                 2.19797535 [mEh]       1.37925035 [kcal/mol]       5.77078348 [kJ/mol]
    Induction sSAPT0               -1.27181663 [mEh]      -0.79807698 [kcal/mol]      -3.33915409 [kJ/mol]
    Dispersion sSAPT0              -2.20743900 [mEh]      -1.38518889 [kcal/mol]      -5.79563030 [kJ/mol]
  Total sSAPT0                     -9.68844845 [mEh]      -6.07959319 [kcal/mol]     -25.43701789 [kJ/mol]
  --------------------------------------------------------------------------------------------------------

*** Psi4 exiting successfully. Buy a developer a beer!
