                               Psi4 1.4a2.dev224

  ==> Input File <==

--------------------------------------------------------------------------
#Generated by lconvert.py for sapt job

memory 50 GB

molecule  {
0 1
  O      -0.636140   -0.023280    0.280600
  H       0.308100   -0.047080    0.076460
  C      -1.152060   -1.311290    0.015260
  H      -2.209940   -1.296270    0.263960
  H      -1.056610   -1.592670   -1.036190
  H      -0.674840   -2.086270    0.620510
--
0 1
  O       3.401230   -0.169100   -0.067550
  H       3.870020    0.445290   -0.637210
  C       3.910070   -0.012080    1.254170
  H       3.356500   -0.700270    1.884300
  H       4.969060   -0.262520    1.310890
  H       3.757630    0.998620    1.632060
units angstrom
no_reorient
symmetry c1
}

set {
scf_type DF
basis aug-cc-pvtz
freeze_core True
guess SAD
}
energy('sapt2+')
--------------------------------------------------------------------------

  //              Dimer HF             //
    Molecular point group: c1
  Charge       = 0
  Multiplicity = 1
  Basis Set: AUG-CC-PVTZ
    Blend: AUG-CC-PVTZ
  Basis Set: (AUG-CC-PVTZ AUX)
    Blend: AUG-CC-PVTZ-JKFIT
  @DF-RHF Final Energy:  -230.18676459663874
    Total Energy =                       -230.1867645966387386
  //            Monomer A HF           //
    Molecular point group: c1
  Multiplicity = 1
  Basis Set: AUG-CC-PVTZ
    Blend: AUG-CC-PVTZ
  Basis Set: (AUG-CC-PVTZ AUX)
    Blend: AUG-CC-PVTZ-JKFIT
  @DF-RHF Final Energy:  -115.09182556803242
    Total Energy =                       -115.0918255680324194
  //            Monomer B HF           //
    Molecular point group: c1

    Geometry (in Angstrom), charge = 0, multiplicity = 1:

       Center              X                  Y                   Z               Mass
    ------------   -----------------  -----------------  -----------------  -----------------
      Gh(O)          -2.037176977695     0.344141605409    -0.075168782305    15.994914619570
      Gh(H)          -1.092936977695     0.320341605409    -0.279308782305     1.007825032230
      Gh(C)          -2.553096977695    -0.943868394591    -0.340508782305    12.000000000000
      Gh(H)          -3.610976977695    -0.928848394591    -0.091808782305     1.007825032230
      Gh(H)          -2.457646977695    -1.225248394591    -1.391958782305     1.007825032230
      Gh(H)          -2.075876977695    -1.718848394591     0.264741217695     1.007825032230
         O            2.000193022305     0.198321605409    -0.423318782305    15.994914619570
         H            2.468983022305     0.812711605409    -0.992978782305     1.007825032230
         C            2.509033022305     0.355341605409     0.898401217695    12.000000000000
         H            1.955463022305    -0.332848394591     1.528531217695     1.007825032230
         H            3.568023022305     0.104901605409     0.955121217695     1.007825032230
         H            2.356593022305     1.366041605409     1.276291217695     1.007825032230

  Charge       = 0
  Multiplicity = 1
  Basis Set: AUG-CC-PVTZ
    Blend: AUG-CC-PVTZ
  Basis Set: (AUG-CC-PVTZ AUX)
    Blend: AUG-CC-PVTZ-JKFIT

    Orbital Energies [Eh]
    ---------------------

    Doubly Occupied:

       1A    -20.558979     2A    -11.270639     3A     -1.356238
       4A     -0.926805     5A     -0.690302     6A     -0.621040
       7A     -0.592335     8A     -0.505217     9A     -0.452567

  @DF-RHF Final Energy:  -115.09205997819700

   => Energetics <=

    Nuclear Repulsion Energy =             40.2980166619066296
    One-Electron Energy =                -236.8319068226800255
    Two-Electron Energy =                  81.4418301825764104
    Total Energy =                       -115.0920599781969997

  Dipole Moment: [D]
     X:     1.3008      Y:     1.1447      Z:     0.5591     Total:     1.8207

    SAPT Results
  --------------------------------------------------------------------------------------------------------
    Electrostatics                 -2.65317515 [mEh]      -1.66489254 [kcal/mol]      -6.96591041 [kJ/mol]
      Elst10,r                     -2.83654998 [mEh]      -1.77996198 [kcal/mol]      -7.44736094 [kJ/mol]
      Elst12,r                      0.18337482 [mEh]       0.11506944 [kcal/mol]       0.48145054 [kJ/mol]

    Exchange                        0.22592757 [mEh]       0.14177169 [kcal/mol]       0.59317276 [kJ/mol]
      Exch10                        0.16517897 [mEh]       0.10365137 [kcal/mol]       0.43367733 [kJ/mol]
      Exch10(S^2)                   0.16515199 [mEh]       0.10363444 [kcal/mol]       0.43360648 [kJ/mol]
      Exch11(S^2)                  -0.00083537 [mEh]      -0.00052421 [kcal/mol]      -0.00219327 [kJ/mol]
      Exch12(S^2)                   0.06158397 [mEh]       0.03864453 [kcal/mol]       0.16168870 [kJ/mol]

    Induction                      -0.22246905 [mEh]      -0.13960144 [kcal/mol]      -0.58409242 [kJ/mol]
      Ind20,r                      -0.20706814 [mEh]      -0.12993722 [kcal/mol]      -0.54365734 [kJ/mol]
      Ind22                        -0.01695186 [mEh]      -0.01063745 [kcal/mol]      -0.04450711 [kJ/mol]
      Exch-Ind20,r                  0.02641158 [mEh]       0.01657352 [kcal/mol]       0.06934359 [kJ/mol]
      Exch-Ind22                    0.00216221 [mEh]       0.00135681 [kcal/mol]       0.00567689 [kJ/mol]
      delta HF,r (2)               -0.02702284 [mEh]      -0.01695709 [kcal/mol]      -0.07094845 [kJ/mol]

    Dispersion                     -0.71868722 [mEh]      -0.45098304 [kcal/mol]      -1.88691304 [kJ/mol]
      Disp20                       -0.64131514 [mEh]      -0.40243133 [kcal/mol]      -1.68377267 [kJ/mol]
      Disp21                        0.03045050 [mEh]       0.01910798 [kcal/mol]       0.07994777 [kJ/mol]
      Disp22 (SDQ)                 -0.00669673 [mEh]      -0.00420226 [kcal/mol]      -0.01758225 [kJ/mol]
      Disp22 (T)                   -0.11167937 [mEh]      -0.07007986 [kcal/mol]      -0.29321415 [kJ/mol]
      Est. Disp22 (T)              -0.12023369 [mEh]      -0.07544778 [kcal/mol]      -0.31567351 [kJ/mol]
      Exch-Disp20                   0.01910784 [mEh]       0.01199035 [kcal/mol]       0.05016762 [kJ/mol]

  Total HF                         -2.87905041 [mEh]      -1.80663141 [kcal/mol]      -7.55894581 [kJ/mol]
  Total SAPT0                      -3.50125771 [mEh]      -2.19707238 [kcal/mol]      -9.19255086 [kJ/mol]
  Total SAPT2                      -3.27192394 [mEh]      -2.05316327 [kcal/mol]      -8.59043511 [kJ/mol]
  Total SAPT2+                     -3.36840386 [mEh]      -2.11370533 [kcal/mol]      -8.84374311 [kJ/mol]

  Special recipe for scaled SAPT0 (see Manual):
    Electrostatics sSAPT0          -2.83654998 [mEh]      -1.77996198 [kcal/mol]      -7.44736094 [kJ/mol]
    Exchange sSAPT0                 0.16517897 [mEh]       0.10365137 [kcal/mol]       0.43367733 [kJ/mol]
    Induction sSAPT0               -0.20766645 [mEh]      -0.13031267 [kcal/mol]      -0.54522820 [kJ/mol]
    Dispersion sSAPT0              -0.62219793 [mEh]      -0.39043510 [kcal/mol]      -1.63358045 [kJ/mol]
  Total sSAPT0                     -3.50123539 [mEh]      -2.19705838 [kcal/mol]      -9.19249226 [kJ/mol]
  --------------------------------------------------------------------------------------------------------

*** Psi4 exiting successfully. Buy a developer a beer!
