                               Psi4 1.4a2.dev224

  ==> Input File <==

--------------------------------------------------------------------------
#Generated by lconvert.py for sapt job

memory 50 GB

molecule  {
0 1
  O      -0.636140   -0.023280    0.280600
  H       0.308100   -0.047080    0.076460
  C      -1.152060   -1.311290    0.015260
  H      -2.209940   -1.296270    0.263960
  H      -1.056610   -1.592670   -1.036190
  H      -0.674840   -2.086270    0.620510
--
0 1
  O       2.821290   -0.146220   -0.040540
  H       3.290080    0.468160   -0.610210
  C       3.330120    0.010800    1.281170
  H       2.776550   -0.677400    1.911300
  H       4.389120   -0.239640    1.337900
  H       3.177680    1.021490    1.659070
units angstrom
no_reorient
symmetry c1
}

set {
scf_type DF
basis aug-cc-pvtz
freeze_core True
guess SAD
}
energy('sapt2+')
--------------------------------------------------------------------------

  //              Dimer HF             //
    Molecular point group: c1
  Charge       = 0
  Multiplicity = 1
  Basis Set: AUG-CC-PVTZ
    Blend: AUG-CC-PVTZ
  Basis Set: (AUG-CC-PVTZ AUX)
    Blend: AUG-CC-PVTZ-JKFIT
  @DF-RHF Final Energy:  -230.18871656923602
    Total Energy =                       -230.1887165692360213
  //            Monomer A HF           //
    Molecular point group: c1
  Multiplicity = 1
  Basis Set: AUG-CC-PVTZ
    Blend: AUG-CC-PVTZ
  Basis Set: (AUG-CC-PVTZ AUX)
    Blend: AUG-CC-PVTZ-JKFIT
  @DF-RHF Final Energy:  -115.09184878357836
    Total Energy =                       -115.0918487835783566
  //            Monomer B HF           //
    Molecular point group: c1

    Geometry (in Angstrom), charge = 0, multiplicity = 1:

       Center              X                  Y                   Z               Mass
    ------------   -----------------  -----------------  -----------------  -----------------
      Gh(O)          -1.747204789543     0.332702077440    -0.088671594152    15.994914619570
      Gh(H)          -0.802964789543     0.308902077440    -0.292811594152     1.007825032230
      Gh(C)          -2.263124789543    -0.955307922560    -0.354011594152    12.000000000000
      Gh(H)          -3.321004789543    -0.940287922560    -0.105311594152     1.007825032230
      Gh(H)          -2.167674789543    -1.236687922560    -1.405461594152     1.007825032230
      Gh(H)          -1.785904789543    -1.730287922560     0.251238405848     1.007825032230
         O            1.710225210457     0.209762077440    -0.409811594152    15.994914619570
         H            2.179015210457     0.824142077440    -0.979481594152     1.007825032230
         C            2.219055210457     0.366782077440     0.911898405848    12.000000000000
         H            1.665485210457    -0.321417922560     1.542028405848     1.007825032230
         H            3.278055210457     0.116342077440     0.968628405848     1.007825032230
         H            2.066615210457     1.377472077440     1.289798405848     1.007825032230

  Charge       = 0
  Multiplicity = 1
  Basis Set: AUG-CC-PVTZ
    Blend: AUG-CC-PVTZ
  Basis Set: (AUG-CC-PVTZ AUX)
    Blend: AUG-CC-PVTZ-JKFIT

    Orbital Energies [Eh]
    ---------------------

    Doubly Occupied:

       1A    -20.558924     2A    -11.270634     3A     -1.356219
       4A     -0.926791     5A     -0.690286     6A     -0.621037
       7A     -0.592321     8A     -0.505201     9A     -0.452563

  @DF-RHF Final Energy:  -115.09209781812304

   => Energetics <=

    Nuclear Repulsion Energy =             40.2981640121350040
    One-Electron Energy =                -236.8325706997782163
    Two-Electron Energy =                  81.4423088695201756
    Total Energy =                       -115.0920978181230367

  Dipole Moment: [D]
     X:     1.3005      Y:     1.1442      Z:     0.5587     Total:     1.8201

    SAPT Results
  --------------------------------------------------------------------------------------------------------
    Electrostatics                 -5.21143843 [mEh]      -3.27022699 [kcal/mol]     -13.68262972 [kJ/mol]
      Elst10,r                     -5.41443277 [mEh]      -3.39760786 [kcal/mol]     -14.21559129 [kJ/mol]
      Elst12,r                      0.20299434 [mEh]       0.12738087 [kcal/mol]       0.53296158 [kJ/mol]

    Exchange                        1.80504882 [mEh]       1.13268524 [kcal/mol]       4.73915503 [kJ/mol]
      Exch10                        1.42114901 [mEh]       0.89178447 [kcal/mol]       3.73122622 [kJ/mol]
      Exch10(S^2)                   1.41954680 [mEh]       0.89077906 [kcal/mol]       3.72701961 [kJ/mol]
      Exch11(S^2)                   0.00426076 [mEh]       0.00267367 [kcal/mol]       0.01118663 [kJ/mol]
      Exch12(S^2)                   0.37963905 [mEh]       0.23822710 [kcal/mol]       0.99674218 [kJ/mol]

    Induction                      -0.86119096 [mEh]      -0.54040548 [kcal/mol]      -2.26105655 [kJ/mol]
      Ind20,r                      -0.85838725 [mEh]      -0.53864613 [kcal/mol]      -2.25369540 [kJ/mol]
      Ind22                        -0.12578383 [mEh]      -0.07893055 [kcal/mol]      -0.33024541 [kJ/mol]
      Exch-Ind20,r                  0.28168445 [mEh]       0.17675966 [kcal/mol]       0.73956242 [kJ/mol]
      Exch-Ind22                    0.04127665 [mEh]       0.02590149 [kcal/mol]       0.10837183 [kJ/mol]
      delta HF,r (2)               -0.19998098 [mEh]      -0.12548996 [kcal/mol]      -0.52504999 [kJ/mol]

    Dispersion                     -1.88039251 [mEh]      -1.17996411 [kcal/mol]      -4.93696985 [kJ/mol]
      Disp20                       -1.73055660 [mEh]      -1.08594066 [kcal/mol]      -4.54357573 [kJ/mol]
      Disp21                        0.06217315 [mEh]       0.03901424 [kcal/mol]       0.16323558 [kJ/mol]
      Disp22 (SDQ)                 -0.02819517 [mEh]      -0.01769274 [kcal/mol]      -0.07402642 [kJ/mol]
      Disp22 (T)                   -0.28577049 [mEh]      -0.17932369 [kcal/mol]      -0.75029031 [kJ/mol]
      Est. Disp22 (T)              -0.31895083 [mEh]      -0.20014467 [kcal/mol]      -0.83740528 [kJ/mol]
      Exch-Disp20                   0.13513694 [mEh]       0.08479971 [kcal/mol]       0.35480200 [kJ/mol]

  Total HF                         -4.76996753 [mEh]      -2.99319982 [kcal/mol]     -12.52354804 [kJ/mol]
  Total SAPT0                      -6.36538719 [mEh]      -3.99434077 [kcal/mol]     -16.71232177 [kJ/mol]
  Total SAPT2                      -5.86300022 [mEh]      -3.67908818 [kcal/mol]     -15.39330496 [kJ/mol]
  Total SAPT2+                     -6.14797308 [mEh]      -3.85791135 [kcal/mol]     -16.14150108 [kJ/mol]

  Special recipe for scaled SAPT0 (see Manual):
    Electrostatics sSAPT0          -5.41443277 [mEh]      -3.39760786 [kcal/mol]     -14.21559129 [kJ/mol]
    Exchange sSAPT0                 1.42114901 [mEh]       0.89178447 [kcal/mol]       3.73122622 [kJ/mol]
    Induction sSAPT0               -0.77572890 [mEh]      -0.48677724 [kcal/mol]      -2.03667595 [kJ/mol]
    Dispersion sSAPT0              -1.59496156 [mEh]      -1.00085349 [kcal/mol]      -4.18757100 [kJ/mol]
  Total sSAPT0                     -6.36397422 [mEh]      -3.99345411 [kcal/mol]     -16.70861201 [kJ/mol]
  --------------------------------------------------------------------------------------------------------

*** Psi4 exiting successfully. Buy a developer a beer!
