                               Psi4 1.4a2.dev224

  ==> Input File <==

--------------------------------------------------------------------------
#Generated by lconvert.py for sapt job

memory 50 GB

molecule  {
0 1
  O      -0.636140   -0.023280    0.280600
  H       0.308100   -0.047080    0.076460
  C      -1.152060   -1.311290    0.015260
  H      -2.209940   -1.296270    0.263960
  H      -1.056610   -1.592670   -1.036190
  H      -0.674840   -2.086270    0.620510
--
0 1
  O       3.981180   -0.191980   -0.094550
  H       4.449970    0.422410   -0.664220
  C       4.490010   -0.034960    1.227170
  H       3.936440   -0.723150    1.857300
  H       5.549010   -0.285400    1.283890
  H       4.337570    0.975740    1.605060
units angstrom
no_reorient
symmetry c1
}

set {
scf_type DF
basis aug-cc-pvtz
freeze_core True
guess SAD
}
energy('sapt2+')
--------------------------------------------------------------------------

  //              Dimer HF             //
    Molecular point group: c1
  Charge       = 0
  Multiplicity = 1
  Basis Set: AUG-CC-PVTZ
    Blend: AUG-CC-PVTZ
  Basis Set: (AUG-CC-PVTZ AUX)
    Blend: AUG-CC-PVTZ-JKFIT
  @DF-RHF Final Energy:  -230.18562415275520
    Total Energy =                       -230.1856241527551958
  //            Monomer A HF           //
    Molecular point group: c1
  Multiplicity = 1
  Basis Set: AUG-CC-PVTZ
    Blend: AUG-CC-PVTZ
  Basis Set: (AUG-CC-PVTZ AUX)
    Blend: AUG-CC-PVTZ-JKFIT
  @DF-RHF Final Energy:  -115.09181601178481
    Total Energy =                       -115.0918160117848146
  //            Monomer B HF           //
    Molecular point group: c1

    Geometry (in Angstrom), charge = 0, multiplicity = 1:

       Center              X                  Y                   Z               Mass
    ------------   -----------------  -----------------  -----------------  -----------------
      Gh(O)          -2.327149789543     0.355581605409    -0.061668624961    15.994914619570
      Gh(H)          -1.382909789543     0.331781605409    -0.265808624961     1.007825032230
      Gh(C)          -2.843069789543    -0.932428394591    -0.327008624961    12.000000000000
      Gh(H)          -3.900949789543    -0.917408394591    -0.078308624961     1.007825032230
      Gh(H)          -2.747619789543    -1.213808394591    -1.378458624961     1.007825032230
      Gh(H)          -2.365849789543    -1.707408394591     0.278241375039     1.007825032230
         O            2.290170210457     0.186881605409    -0.436818624961    15.994914619570
         H            2.758960210457     0.801271605409    -1.006488624961     1.007825032230
         C            2.799000210457     0.343901605409     0.884901375039    12.000000000000
         H            2.245430210457    -0.344288394591     1.515031375039     1.007825032230
         H            3.858000210457     0.093461605409     0.941621375039     1.007825032230
         H            2.646560210457     1.354601605409     1.262791375039     1.007825032230

  Charge       = 0
  Multiplicity = 1
  Basis Set: AUG-CC-PVTZ
    Blend: AUG-CC-PVTZ
  Basis Set: (AUG-CC-PVTZ AUX)
    Blend: AUG-CC-PVTZ-JKFIT

    Orbital Energies [Eh]
    ---------------------

    Doubly Occupied:

       1A    -20.559000     2A    -11.270642     3A     -1.356249
       4A     -0.926810     5A     -0.690311     6A     -0.621040
       7A     -0.592344     8A     -0.505222     9A     -0.452567

  @DF-RHF Final Energy:  -115.09204552315799

   => Energetics <=

    Nuclear Repulsion Energy =             40.2979963478624796
    One-Electron Energy =                -236.8317095472418998
    Two-Electron Energy =                  81.4416676762214138
    Total Energy =                       -115.0920455231579922

  Dipole Moment: [D]
     X:     1.3007      Y:     1.1450      Z:     0.5592     Total:     1.8209

    SAPT Results
  --------------------------------------------------------------------------------------------------------
    Electrostatics                 -1.57659593 [mEh]      -0.98932888 [kcal/mol]      -4.13935204 [kJ/mol]
      Elst10,r                     -1.70836473 [mEh]      -1.07201506 [kcal/mol]      -4.48531099 [kJ/mol]
      Elst12,r                      0.13176881 [mEh]       0.08268617 [kcal/mol]       0.34595895 [kJ/mol]

    Exchange                        0.02780777 [mEh]       0.01744964 [kcal/mol]       0.07300928 [kJ/mol]
      Exch10                        0.01889541 [mEh]       0.01185705 [kcal/mol]       0.04960990 [kJ/mol]
      Exch10(S^2)                   0.01889498 [mEh]       0.01185678 [kcal/mol]       0.04960876 [kJ/mol]
      Exch11(S^2)                  -0.00024589 [mEh]      -0.00015430 [kcal/mol]      -0.00064559 [kJ/mol]
      Exch12(S^2)                   0.00915825 [mEh]       0.00574689 [kcal/mol]       0.02404498 [kJ/mol]

    Induction                      -0.07506759 [mEh]      -0.04710562 [kcal/mol]      -0.19708992 [kJ/mol]
      Ind20,r                      -0.07151794 [mEh]      -0.04487818 [kcal/mol]      -0.18777032 [kJ/mol]
      Ind22                        -0.00199784 [mEh]      -0.00125367 [kcal/mol]      -0.00524534 [kJ/mol]
      Exch-Ind20,r                  0.00281889 [mEh]       0.00176888 [kcal/mol]       0.00740099 [kJ/mol]
      Exch-Ind22                    0.00007875 [mEh]       0.00004941 [kcal/mol]       0.00020675 [kJ/mol]
      delta HF,r (2)               -0.00444944 [mEh]      -0.00279206 [kcal/mol]      -0.01168199 [kJ/mol]

    Dispersion                     -0.30926047 [mEh]      -0.19406387 [kcal/mol]      -0.81196324 [kJ/mol]
      Disp20                       -0.27757994 [mEh]      -0.17418404 [kcal/mol]      -0.72878604 [kJ/mol]
      Disp21                        0.01778941 [mEh]       0.01116302 [kcal/mol]       0.04670609 [kJ/mol]
      Disp22 (SDQ)                 -0.00040760 [mEh]      -0.00025577 [kcal/mol]      -0.00107016 [kJ/mol]
      Disp22 (T)                   -0.04915207 [mEh]      -0.03084339 [kcal/mol]      -0.12904875 [kJ/mol]
      Est. Disp22 (T)              -0.05164656 [mEh]      -0.03240871 [kcal/mol]      -0.13559803 [kJ/mol]
      Exch-Disp20                   0.00258423 [mEh]       0.00162163 [kcal/mol]       0.00678489 [kJ/mol]

  Total HF                         -1.76261781 [mEh]      -1.10605938 [kcal/mol]      -4.62775243 [kJ/mol]
  Total SAPT0                      -2.03761353 [mEh]      -1.27862179 [kcal/mol]      -5.34975357 [kJ/mol]
  Total SAPT2                      -1.89885146 [mEh]      -1.19154728 [kcal/mol]      -4.98543383 [kJ/mol]
  Total SAPT2+                     -1.93311622 [mEh]      -1.21304874 [kcal/mol]      -5.07539592 [kJ/mol]

  Special recipe for scaled SAPT0 (see Manual):
    Electrostatics sSAPT0          -1.70836473 [mEh]      -1.07201506 [kcal/mol]      -4.48531099 [kJ/mol]
    Exchange sSAPT0                 0.01889541 [mEh]       0.01185705 [kcal/mol]       0.04960990 [kJ/mol]
    Induction sSAPT0               -0.07314830 [mEh]      -0.04590125 [kcal/mol]      -0.19205082 [kJ/mol]
    Dispersion sSAPT0              -0.27499554 [mEh]      -0.17256230 [kcal/mol]      -0.72200068 [kJ/mol]
  Total sSAPT0                     -2.03761315 [mEh]      -1.27862156 [kcal/mol]      -5.34975260 [kJ/mol]
  --------------------------------------------------------------------------------------------------------

*** Psi4 exiting successfully. Buy a developer a beer!
