                               Psi4 1.4a2.dev224

  ==> Input File <==

--------------------------------------------------------------------------
#Generated by lconvert.py for sapt job

memory 50 GB

molecule  {
0 1
  O      -0.706920    0.045830    0.006390
  H       0.265620    0.071710    0.001340
  C      -1.076670   -1.313920    0.001610
  H      -2.162920   -1.363200    0.005870
  H      -0.723410   -1.844650   -0.887740
  H      -0.716080   -1.852820    0.883080
--
0 1
  N       4.001670   -0.136990   -0.007690
  H       4.372290    0.370780    0.785440
  H       4.372420    0.327340   -0.826950
  C       4.479430   -1.523030    0.029770
  H       4.087540   -2.057050   -0.832420
  H       5.566140   -1.629760    0.032810
  H       4.087300   -2.009760    0.919410
units angstrom
no_reorient
symmetry c1
}

set {
scf_type DF
basis aug-cc-pvtz
freeze_core True
guess SAD
}
energy('sapt2+')
--------------------------------------------------------------------------

  //              Dimer HF             //
    Molecular point group: c1
  Charge       = 0
  Multiplicity = 1
  Basis Set: AUG-CC-PVTZ
    Blend: AUG-CC-PVTZ
  Basis Set: (AUG-CC-PVTZ AUX)
    Blend: AUG-CC-PVTZ-JKFIT
  @DF-RHF Final Energy:  -210.34896088551866
    Total Energy =                       -210.3489608855186646
  //            Monomer A HF           //
    Molecular point group: c1
  Multiplicity = 1
  Basis Set: AUG-CC-PVTZ
    Blend: AUG-CC-PVTZ
  Basis Set: (AUG-CC-PVTZ AUX)
    Blend: AUG-CC-PVTZ-JKFIT
  @DF-RHF Final Energy:  -115.09134312155992
    Total Energy =                       -115.0913431215599161
  //            Monomer B HF           //
    Molecular point group: c1

    Geometry (in Angstrom), charge = 0, multiplicity = 1:

       Center              X                  Y                   Z               Mass
    ------------   -----------------  -----------------  -----------------  -----------------
      Gh(O)          -2.369565536179     0.764005599559    -0.000785643287    15.994914619570
      Gh(H)          -1.397025536179     0.789885599559    -0.005835643287     1.007825032230
      Gh(C)          -2.739315536179    -0.595744400441    -0.005565643287    12.000000000000
      Gh(H)          -3.825565536179    -0.645024400441    -0.001305643287     1.007825032230
      Gh(H)          -2.386055536179    -1.126474400441    -0.894915643287     1.007825032230
      Gh(H)          -2.378725536179    -1.134644400441     0.875904356713     1.007825032230
         N            2.339024463821     0.581185599559    -0.014865643287    14.003074004430
         H            2.709644463821     1.088955599559     0.778264356713     1.007825032230
         H            2.709774463821     1.045515599559    -0.834125643287     1.007825032230
         C            2.816784463821    -0.804854400441     0.022594356713    12.000000000000
         H            2.424894463821    -1.338874400441    -0.839595643287     1.007825032230
         H            3.903494463821    -0.911584400441     0.025634356713     1.007825032230
         H            2.424654463821    -1.291584400441     0.912234356713     1.007825032230

  Charge       = 0
  Multiplicity = 1
  Basis Set: AUG-CC-PVTZ
    Blend: AUG-CC-PVTZ
  Basis Set: (AUG-CC-PVTZ AUX)
    Blend: AUG-CC-PVTZ-JKFIT

    Orbital Energies [Eh]
    ---------------------

    Doubly Occupied:

       1A    -15.539983     2A    -11.240337     3A     -1.170058
       4A     -0.896655     5A     -0.661414     6A     -0.603970
       7A     -0.555606     8A     -0.517440     9A     -0.393513

  @DF-RHF Final Energy:   -95.25547092203159

   => Energetics <=

    Nuclear Repulsion Energy =             42.0519337683161112
    One-Electron Energy =                -211.4568559149086013
    Two-Electron Energy =                  74.1494512245609059
    Total Energy =                        -95.2554709220315914

  Dipole Moment: [D]
     X:     1.4488      Y:     0.0080      Z:    -0.0001     Total:     1.4488

    SAPT Results
  --------------------------------------------------------------------------------------------------------
    Electrostatics                 -1.99765246 [mEh]      -1.25354584 [kcal/mol]      -5.24483581 [kJ/mol]
      Elst10,r                     -2.07455408 [mEh]      -1.30180234 [kcal/mol]      -5.44674099 [kJ/mol]
      Elst12,r                      0.07690162 [mEh]       0.04825650 [kcal/mol]       0.20190518 [kJ/mol]

    Exchange                        0.07347893 [mEh]       0.04610873 [kcal/mol]       0.19291891 [kJ/mol]
      Exch10                        0.05485449 [mEh]       0.03442171 [kcal/mol]       0.14402044 [kJ/mol]
      Exch10(S^2)                   0.05485060 [mEh]       0.03441927 [kcal/mol]       0.14401022 [kJ/mol]
      Exch11(S^2)                   0.00051528 [mEh]       0.00032334 [kcal/mol]       0.00135286 [kJ/mol]
      Exch12(S^2)                   0.01810916 [mEh]       0.01136367 [kcal/mol]       0.04754560 [kJ/mol]

    Induction                      -0.13570442 [mEh]      -0.08515581 [kcal/mol]      -0.35629190 [kJ/mol]
      Ind20,r                      -0.12937401 [mEh]      -0.08118342 [kcal/mol]      -0.33967143 [kJ/mol]
      Ind22                        -0.00960865 [mEh]      -0.00602952 [kcal/mol]      -0.02522752 [kJ/mol]
      Exch-Ind20,r                  0.01409137 [mEh]       0.00884247 [kcal/mol]       0.03699688 [kJ/mol]
      Exch-Ind22                    0.00104657 [mEh]       0.00065673 [kcal/mol]       0.00274777 [kJ/mol]
      delta HF,r (2)               -0.01185969 [mEh]      -0.00744207 [kcal/mol]      -0.03113761 [kJ/mol]

    Dispersion                     -0.41761038 [mEh]      -0.26205447 [kcal/mol]      -1.09643589 [kJ/mol]
      Disp20                       -0.37676428 [mEh]      -0.23642315 [kcal/mol]      -0.98919447 [kJ/mol]
      Disp21                        0.01843315 [mEh]       0.01156698 [kcal/mol]       0.04839622 [kJ/mol]
      Disp22 (SDQ)                  0.00245349 [mEh]       0.00153959 [kcal/mol]       0.00644165 [kJ/mol]
      Disp22 (T)                   -0.06396495 [mEh]      -0.04013861 [kcal/mol]      -0.16793995 [kJ/mol]
      Est. Disp22 (T)              -0.06917332 [mEh]      -0.04340691 [kcal/mol]      -0.18161452 [kJ/mol]
      Exch-Disp20                   0.00744058 [mEh]       0.00466903 [kcal/mol]       0.01953523 [kJ/mol]

  Total HF                         -2.14684193 [mEh]      -1.34716365 [kcal/mol]      -5.63653270 [kJ/mol]
  Total SAPT0                      -2.51616563 [mEh]      -1.57891777 [kcal/mol]      -6.60619195 [kJ/mol]
  Total SAPT2                      -2.42920165 [mEh]      -1.52434705 [kcal/mol]      -6.37786805 [kJ/mol]
  Total SAPT2+                     -2.47748832 [mEh]      -1.55464739 [kcal/mol]      -6.50464470 [kJ/mol]

  Special recipe for scaled SAPT0 (see Manual):
    Electrostatics sSAPT0          -2.07455408 [mEh]      -1.30180234 [kcal/mol]      -5.44674099 [kJ/mol]
    Exchange sSAPT0                 0.05485449 [mEh]       0.03442171 [kcal/mol]       0.14402044 [kJ/mol]
    Induction sSAPT0               -0.12713933 [mEh]      -0.07978114 [kcal/mol]      -0.33380428 [kJ/mol]
    Dispersion sSAPT0              -0.36932212 [mEh]      -0.23175313 [kcal/mol]      -0.96965508 [kJ/mol]
  Total sSAPT0                     -2.51616104 [mEh]      -1.57891489 [kcal/mol]      -6.60617991 [kJ/mol]
  --------------------------------------------------------------------------------------------------------

*** Psi4 exiting successfully. Buy a developer a beer!
