                               Psi4 1.4a2.dev224

  ==> Input File <==

--------------------------------------------------------------------------
#Generated by lconvert.py for sapt job

memory 50 GB

molecule  {
0 1
  O      -0.706920    0.045830    0.006390
  H       0.265620    0.071710    0.001340
  C      -1.076670   -1.313920    0.001610
  H      -2.162920   -1.363200    0.005870
  H      -0.723410   -1.844650   -0.887740
  H      -0.716080   -1.852820    0.883080
--
0 1
  N       2.821900   -0.071090   -0.004840
  H       3.192520    0.436690    0.788290
  H       3.192640    0.393250   -0.824100
  C       3.299650   -1.457120    0.032620
  H       2.907770   -1.991150   -0.829570
  H       4.386360   -1.563860    0.035660
  H       2.907530   -1.943850    0.922260
units angstrom
no_reorient
symmetry c1
}

set {
scf_type DF
basis aug-cc-pvtz
freeze_core True
guess SAD
}
energy('sapt2+')
--------------------------------------------------------------------------

  //              Dimer HF             //
    Molecular point group: c1
  Charge       = 0
  Multiplicity = 1
  Basis Set: AUG-CC-PVTZ
    Blend: AUG-CC-PVTZ
  Basis Set: (AUG-CC-PVTZ AUX)
    Blend: AUG-CC-PVTZ-JKFIT
  @DF-RHF Final Energy:  -210.35291681376191
    Total Energy =                       -210.3529168137619081
  //            Monomer A HF           //
    Molecular point group: c1
  Multiplicity = 1
  Basis Set: AUG-CC-PVTZ
    Blend: AUG-CC-PVTZ
  Basis Set: (AUG-CC-PVTZ AUX)
    Blend: AUG-CC-PVTZ-JKFIT
  @DF-RHF Final Energy:  -115.09137976253845
    Total Energy =                       -115.0913797625384518
  //            Monomer B HF           //
    Molecular point group: c1

    Geometry (in Angstrom), charge = 0, multiplicity = 1:

       Center              X                  Y                   Z               Mass
    ------------   -----------------  -----------------  -----------------  -----------------
      Gh(O)          -1.788881907192     0.731567314960    -0.002188409936    15.994914619570
      Gh(H)          -0.816341907192     0.757447314960    -0.007238409936     1.007825032230
      Gh(C)          -2.158631907192    -0.628182685040    -0.006968409936    12.000000000000
      Gh(H)          -3.244881907192    -0.677462685040    -0.002708409936     1.007825032230
      Gh(H)          -1.805371907192    -1.158912685040    -0.896318409936     1.007825032230
      Gh(H)          -1.798041907192    -1.167082685040     0.874501590064     1.007825032230
         N            1.739938092808     0.614647314960    -0.013418409936    14.003074004430
         H            2.110558092808     1.122427314960     0.779711590064     1.007825032230
         H            2.110678092808     1.078987314960    -0.832678409936     1.007825032230
         C            2.217688092808    -0.771382685040     0.024041590064    12.000000000000
         H            1.825808092808    -1.305412685040    -0.838148409936     1.007825032230
         H            3.304398092808    -0.878122685040     0.027081590064     1.007825032230
         H            1.825568092808    -1.258112685040     0.913681590064     1.007825032230

  Charge       = 0
  Multiplicity = 1
  Basis Set: AUG-CC-PVTZ
    Blend: AUG-CC-PVTZ
  Basis Set: (AUG-CC-PVTZ AUX)
    Blend: AUG-CC-PVTZ-JKFIT

    Orbital Energies [Eh]
    ---------------------

    Doubly Occupied:

       1A    -15.539974     2A    -11.240342     3A     -1.170060
       4A     -0.896654     5A     -0.661410     6A     -0.603971
       7A     -0.555607     8A     -0.517437     9A     -0.393513

  @DF-RHF Final Energy:   -95.25549190212720

   => Energetics <=

    Nuclear Repulsion Energy =             42.0520618056260460
    One-Electron Energy =                -211.4571691045559874
    Two-Electron Energy =                  74.1496153968027443
    Total Energy =                        -95.2554919021272042

  Dipole Moment: [D]
     X:     1.4489      Y:     0.0079      Z:    -0.0001     Total:     1.4489

    SAPT Results
  --------------------------------------------------------------------------------------------------------
    Electrostatics                 -7.34609714 [mEh]      -4.60974555 [kcal/mol]     -19.28717538 [kJ/mol]
      Elst10,r                     -7.37151239 [mEh]      -4.62569386 [kcal/mol]     -19.35390312 [kJ/mol]
      Elst12,r                      0.02541525 [mEh]       0.01594831 [kcal/mol]       0.06672774 [kJ/mol]

    Exchange                        3.26002503 [mEh]       2.04569659 [kcal/mol]       8.55919453 [kJ/mol]
      Exch10                        2.73745185 [mEh]       1.71777697 [kcal/mol]       7.18717885 [kJ/mol]
      Exch10(S^2)                   2.73107311 [mEh]       1.71377425 [kcal/mol]       7.17043145 [kJ/mol]
      Exch11(S^2)                   0.04758439 [mEh]       0.02985966 [kcal/mol]       0.12493280 [kJ/mol]
      Exch12(S^2)                   0.47498878 [mEh]       0.29805996 [kcal/mol]       1.24708287 [kJ/mol]

    Induction                      -1.53692905 [mEh]      -0.96443754 [kcal/mol]      -4.03520666 [kJ/mol]
      Ind20,r                      -1.75921328 [mEh]      -1.10392300 [kcal/mol]      -4.61881382 [kJ/mol]
      Ind22                        -0.22487467 [mEh]      -0.14111099 [kcal/mol]      -0.59040836 [kJ/mol]
      Exch-Ind20,r                  0.77475264 [mEh]       0.48616462 [kcal/mol]       2.03411279 [kJ/mol]
      Exch-Ind22                    0.09903418 [mEh]       0.06214489 [kcal/mol]       0.26001420 [kJ/mol]
      delta HF,r (2)               -0.42662792 [mEh]      -0.26771306 [kcal/mol]      -1.12011146 [kJ/mol]

    Dispersion                     -2.58825975 [mEh]      -1.62415752 [kcal/mol]      -6.79547505 [kJ/mol]
      Disp20                       -2.47638458 [mEh]      -1.55395478 [kcal/mol]      -6.50174681 [kJ/mol]
      Disp21                        0.05812981 [mEh]       0.03647700 [kcal/mol]       0.15261978 [kJ/mol]
      Disp22 (SDQ)                  0.00219236 [mEh]       0.00137572 [kcal/mol]       0.00575603 [kJ/mol]
      Disp22 (T)                   -0.39020504 [mEh]      -0.24485736 [kcal/mol]      -1.02448320 [kJ/mol]
      Est. Disp22 (T)              -0.44374792 [mEh]      -0.27845602 [kcal/mol]      -1.16506000 [kJ/mol]
      Exch-Disp20                   0.27155058 [mEh]       0.17040056 [kcal/mol]       0.71295596 [kJ/mol]

  Total HF                         -6.04514910 [mEh]      -3.79338833 [kcal/mol]     -15.87153677 [kJ/mol]
  Total SAPT0                      -8.24998309 [mEh]      -5.17694255 [kcal/mol]     -21.66032762 [kJ/mol]
  Total SAPT2                      -7.82783516 [mEh]      -4.91204072 [kcal/mol]     -20.55197837 [kJ/mol]
  Total SAPT2+                     -8.21126091 [mEh]      -5.15264401 [kcal/mol]     -21.55866256 [kJ/mol]

  Special recipe for scaled SAPT0 (see Manual):
    Electrostatics sSAPT0          -7.37151239 [mEh]      -4.62569386 [kcal/mol]     -19.35390312 [kJ/mol]
    Exchange sSAPT0                 2.73745185 [mEh]       1.71777697 [kcal/mol]       7.18717885 [kJ/mol]
    Induction sSAPT0               -1.40564729 [mEh]      -0.88205699 [kcal/mol]      -3.69052644 [kJ/mol]
    Dispersion sSAPT0              -2.20292683 [mEh]      -1.38235746 [kcal/mol]      -5.78378360 [kJ/mol]
  Total sSAPT0                     -8.24263466 [mEh]      -5.17233134 [kcal/mol]     -21.64103431 [kJ/mol]
  --------------------------------------------------------------------------------------------------------

*** Psi4 exiting successfully. Buy a developer a beer!
