                               Psi4 1.4a2.dev224

  ==> Input File <==

--------------------------------------------------------------------------
#Generated by lconvert.py for sapt job

memory 50 GB

molecule  {
0 1
  O      -0.706920    0.045830    0.006390
  H       0.265620    0.071710    0.001340
  C      -1.076670   -1.313920    0.001610
  H      -2.162920   -1.363200    0.005870
  H      -0.723410   -1.844650   -0.887740
  H      -0.716080   -1.852820    0.883080
--
0 1
  N       3.411790   -0.104040   -0.006260
  H       3.782410    0.403730    0.786870
  H       3.782530    0.360300   -0.825520
  C       3.889540   -1.490080    0.031200
  H       3.497650   -2.024100   -0.830990
  H       4.976250   -1.596810    0.034230
  H       3.497410   -1.976810    0.920830
units angstrom
no_reorient
symmetry c1
}

set {
scf_type DF
basis aug-cc-pvtz
freeze_core True
guess SAD
}
energy('sapt2+')
--------------------------------------------------------------------------

  //              Dimer HF             //
    Molecular point group: c1
  Charge       = 0
  Multiplicity = 1
  Basis Set: AUG-CC-PVTZ
    Blend: AUG-CC-PVTZ
  Basis Set: (AUG-CC-PVTZ AUX)
    Blend: AUG-CC-PVTZ-JKFIT
  @DF-RHF Final Energy:  -210.35045117702794
    Total Energy =                       -210.3504511770279350
  //            Monomer A HF           //
    Molecular point group: c1
  Multiplicity = 1
  Basis Set: AUG-CC-PVTZ
    Blend: AUG-CC-PVTZ
  Basis Set: (AUG-CC-PVTZ AUX)
    Blend: AUG-CC-PVTZ-JKFIT
  @DF-RHF Final Energy:  -115.09135560549143
    Total Energy =                       -115.0913556054914295
  //            Monomer B HF           //
    Molecular point group: c1

    Geometry (in Angstrom), charge = 0, multiplicity = 1:

       Center              X                  Y                   Z               Mass
    ------------   -----------------  -----------------  -----------------  -----------------
      Gh(O)          -2.079224751936     0.747787488507    -0.001489168008    15.994914619570
      Gh(H)          -1.106684751936     0.773667488507    -0.006539168008     1.007825032230
      Gh(C)          -2.448974751936    -0.611962511493    -0.006269168008    12.000000000000
      Gh(H)          -3.535224751936    -0.661242511493    -0.002009168008     1.007825032230
      Gh(H)          -2.095714751936    -1.142692511493    -0.895619168008     1.007825032230
      Gh(H)          -2.088384751936    -1.150862511493     0.875200831992     1.007825032230
         N            2.039485248064     0.597917488507    -0.014139168008    14.003074004430
         H            2.410105248064     1.105687488507     0.778990831992     1.007825032230
         H            2.410225248064     1.062257488507    -0.833399168008     1.007825032230
         C            2.517235248064    -0.788122511493     0.023320831992    12.000000000000
         H            2.125345248064    -1.322142511493    -0.838869168008     1.007825032230
         H            3.603945248064    -0.894852511493     0.026350831992     1.007825032230
         H            2.125105248064    -1.274852511493     0.912950831992     1.007825032230

  Charge       = 0
  Multiplicity = 1
  Basis Set: AUG-CC-PVTZ
    Blend: AUG-CC-PVTZ
  Basis Set: (AUG-CC-PVTZ AUX)
    Blend: AUG-CC-PVTZ-JKFIT

    Orbital Energies [Eh]
    ---------------------

    Doubly Occupied:

       1A    -15.539982     2A    -11.240338     3A     -1.170059
       4A     -0.896656     5A     -0.661413     6A     -0.603970
       7A     -0.555608     8A     -0.517440     9A     -0.393514

  @DF-RHF Final Energy:   -95.25548142327170

   => Energetics <=

    Nuclear Repulsion Energy =             42.0519911825732748
    One-Electron Energy =                -211.4569840499085274
    Two-Electron Energy =                  74.1495114440635348
    Total Energy =                        -95.2554814232717035

  Dipole Moment: [D]
     X:     1.4490      Y:     0.0079      Z:    -0.0001     Total:     1.4490

    SAPT Results
  --------------------------------------------------------------------------------------------------------
    Electrostatics                 -3.53326552 [mEh]      -2.21715758 [kcal/mol]      -9.27658733 [kJ/mol]
      Elst10,r                     -3.62437788 [mEh]      -2.27433146 [kcal/mol]      -9.51580281 [kJ/mol]
      Elst12,r                      0.09111236 [mEh]       0.05717387 [kcal/mol]       0.23921548 [kJ/mol]

    Exchange                        0.49213340 [mEh]       0.30881837 [kcal/mol]       1.29209608 [kJ/mol]
      Exch10                        0.38948207 [mEh]       0.24440369 [kcal/mol]       1.02258504 [kJ/mol]
      Exch10(S^2)                   0.38932126 [mEh]       0.24430278 [kcal/mol]       1.02216282 [kJ/mol]
      Exch11(S^2)                   0.00515649 [mEh]       0.00323575 [kcal/mol]       0.01353836 [kJ/mol]
      Exch12(S^2)                   0.09749484 [mEh]       0.06117894 [kcal/mol]       0.25597267 [kJ/mol]

    Induction                      -0.41280379 [mEh]      -0.25903829 [kcal/mol]      -1.08381621 [kJ/mol]
      Ind20,r                      -0.41480088 [mEh]      -0.26029148 [kcal/mol]      -1.08905955 [kJ/mol]
      Ind22                        -0.04457893 [mEh]      -0.02797370 [kcal/mol]      -0.11704195 [kJ/mol]
      Exch-Ind20,r                  0.10261025 [mEh]       0.06438890 [kcal/mol]       0.26940316 [kJ/mol]
      Exch-Ind22                    0.01102759 [mEh]       0.00691992 [kcal/mol]       0.02895294 [kJ/mol]
      delta HF,r (2)               -0.06706183 [mEh]      -0.04208193 [kcal/mol]      -0.17607080 [kJ/mol]

    Dispersion                     -0.99035100 [mEh]      -0.62145464 [kcal/mol]      -2.60016620 [kJ/mol]
      Disp20                       -0.90001194 [mEh]      -0.56476602 [kcal/mol]      -2.36298102 [kJ/mol]
      Disp21                        0.02822511 [mEh]       0.01771152 [kcal/mol]       0.07410500 [kJ/mol]
      Disp22 (SDQ)                  0.00138151 [mEh]       0.00086691 [kcal/mol]       0.00362715 [kJ/mol]
      Disp22 (T)                   -0.14984198 [mEh]      -0.09402726 [kcal/mol]      -0.39341006 [kJ/mol]
      Est. Disp22 (T)              -0.16577786 [mEh]      -0.10402717 [kcal/mol]      -0.43524970 [kJ/mol]
      Exch-Disp20                   0.04583218 [mEh]       0.02876013 [kcal/mol]       0.12033237 [kJ/mol]

  Total HF                         -3.61414826 [mEh]      -2.26791228 [kcal/mol]      -9.48894496 [kJ/mol]
  Total SAPT0                      -4.46832802 [mEh]      -2.80391817 [kcal/mol]     -11.73159361 [kJ/mol]
  Total SAPT2                      -4.30811566 [mEh]      -2.70338339 [kcal/mol]     -11.31095611 [kJ/mol]
  Total SAPT2+                     -4.44428691 [mEh]      -2.78883214 [kcal/mol]     -11.66847366 [kJ/mol]

  Special recipe for scaled SAPT0 (see Manual):
    Electrostatics sSAPT0          -3.62437788 [mEh]      -2.27433146 [kcal/mol]      -9.51580281 [kJ/mol]
    Exchange sSAPT0                 0.38948207 [mEh]       0.24440369 [kcal/mol]       1.02258504 [kJ/mol]
    Induction sSAPT0               -0.37912525 [mEh]      -0.23790469 [kcal/mol]      -0.99539321 [kJ/mol]
    Dispersion sSAPT0              -0.85412294 [mEh]      -0.53597024 [kcal/mol]      -2.24249947 [kJ/mol]
  Total sSAPT0                     -4.46814400 [mEh]      -2.80380269 [kcal/mol]     -11.73111045 [kJ/mol]
  --------------------------------------------------------------------------------------------------------

*** Psi4 exiting successfully. Buy a developer a beer!
