                               Psi4 1.4a2.dev224

  ==> Input File <==

--------------------------------------------------------------------------
#Generated by lconvert.py for sapt job

memory 50 GB

molecule  {
0 1
  O      -0.208780   -0.216870   -1.032410
  H       0.711130   -0.386890   -0.773960
  C      -1.022170   -0.741170   -0.005450
  H      -2.057490   -0.538710   -0.268600
  H      -0.907740   -1.821830    0.108540
  H      -0.824630   -0.275490    0.964640
--
0 1
  C       3.598250    1.917370    0.993030
  H       4.104640    2.878820    0.958160
  H       3.187710    1.771230    1.990900
  H       2.768600    1.907860    0.291520
  C       4.513880    0.762430    0.677110
  O       4.089690   -0.357480    0.392030
  N       5.840020    1.024150    0.736310
  H       6.138030    1.934580    1.034000
  C       6.822420   -0.015960    0.513570
  H       6.465870   -0.666900   -0.278610
  H       7.762790    0.437570    0.215050
  H       6.981940   -0.620480    1.405640
units angstrom
no_reorient
symmetry c1
}

set {
scf_type DF
basis aug-cc-pvtz
freeze_core True
guess SAD
}
energy('sapt2+')
--------------------------------------------------------------------------

  //              Dimer HF             //
    Molecular point group: c1
  Charge       = 0
  Multiplicity = 1
  Basis Set: AUG-CC-PVTZ
    Blend: AUG-CC-PVTZ
  Basis Set: (AUG-CC-PVTZ AUX)
    Blend: AUG-CC-PVTZ-JKFIT
  @DF-RHF Final Energy:  -362.19707607457934
    Total Energy =                       -362.1970760745793427
  //            Monomer A HF           //
    Molecular point group: c1
  Multiplicity = 1
  Basis Set: AUG-CC-PVTZ
    Blend: AUG-CC-PVTZ
  Basis Set: (AUG-CC-PVTZ AUX)
    Blend: AUG-CC-PVTZ-JKFIT
  @DF-RHF Final Energy:  -115.09152463880616
    Total Energy =                       -115.0915246388061632
  //            Monomer B HF           //
    Molecular point group: c1

    Geometry (in Angstrom), charge = 0, multiplicity = 1:

       Center              X                  Y                   Z               Mass
    ------------   -----------------  -----------------  -----------------  -----------------
      Gh(O)          -3.495841893439    -0.529801465832    -1.335975666223    15.994914619570
      Gh(H)          -2.575931893439    -0.699821465832    -1.077525666223     1.007825032230
      Gh(C)          -4.309231893439    -1.054101465832    -0.309015666223    12.000000000000
      Gh(H)          -5.344551893439    -0.851641465832    -0.572165666223     1.007825032230
      Gh(H)          -4.194801893439    -2.134761465832    -0.195025666223     1.007825032230
      Gh(H)          -4.111691893439    -0.588421465832     0.661074333777     1.007825032230
         C            0.311188106561     1.604438534168     0.689464333777    12.000000000000
         H            0.817578106561     2.565888534168     0.654594333777     1.007825032230
         H           -0.099351893439     1.458298534168     1.687334333777     1.007825032230
         H           -0.518461893439     1.594928534168    -0.012045666223     1.007825032230
         C            1.226818106561     0.449498534168     0.373544333777    12.000000000000
         O            0.802628106561    -0.670411465832     0.088464333777    15.994914619570
         N            2.552958106561     0.711218534168     0.432744333777    14.003074004430
         H            2.850968106561     1.621648534168     0.730434333777     1.007825032230
         C            3.535358106561    -0.328891465832     0.210004333777    12.000000000000
         H            3.178808106561    -0.979831465832    -0.582175666223     1.007825032230
         H            4.475728106561     0.124638534168    -0.088515666223     1.007825032230
         H            3.694878106561    -0.933411465832     1.102074333777     1.007825032230

  Charge       = 0
  Multiplicity = 1
  Basis Set: AUG-CC-PVTZ
    Blend: AUG-CC-PVTZ
  Basis Set: (AUG-CC-PVTZ AUX)
    Blend: AUG-CC-PVTZ-JKFIT

    Orbital Energies [Eh]
    ---------------------

    Doubly Occupied:

       1A    -20.509137     2A    -15.586734     3A    -11.345394
       4A    -11.257590     5A    -11.235598     6A     -1.370067
       7A     -1.230045     8A     -1.019810     9A     -0.933679
      10A     -0.790559    11A     -0.690238    12A     -0.651153
      13A     -0.634303    14A     -0.585748    15A     -0.577820
      16A     -0.557692    17A     -0.547458    18A     -0.499870
      19A     -0.419908    20A     -0.391522

  @DF-RHF Final Energy:  -247.10283129866841

   => Energetics <=

    Nuclear Repulsion Energy =            180.7388417072802156
    One-Electron Energy =                -694.0146906364883534
    Two-Electron Energy =                 266.1730176305396753
    Total Energy =                       -247.1028312986684341

  Dipole Moment: [D]
     X:     2.2238      Y:     3.4499      Z:     1.0169     Total:     4.2286

    SAPT Results
  --------------------------------------------------------------------------------------------------------
    Electrostatics                 -2.33547488 [mEh]      -1.46553261 [kcal/mol]      -6.13178846 [kJ/mol]
      Elst10,r                     -2.62076914 [mEh]      -1.64455746 [kcal/mol]      -6.88082843 [kJ/mol]
      Elst12,r                      0.28529426 [mEh]       0.17902485 [kcal/mol]       0.74903997 [kJ/mol]

    Exchange                        0.09070212 [mEh]       0.05691644 [kcal/mol]       0.23813839 [kJ/mol]
      Exch10                        0.06334654 [mEh]       0.03975055 [kcal/mol]       0.16631632 [kJ/mol]
      Exch10(S^2)                   0.06334271 [mEh]       0.03974815 [kcal/mol]       0.16630626 [kJ/mol]
      Exch11(S^2)                  -0.00002092 [mEh]      -0.00001313 [kcal/mol]      -0.00005493 [kJ/mol]
      Exch12(S^2)                   0.02737651 [mEh]       0.01717902 [kcal/mol]       0.07187701 [kJ/mol]

    Induction                      -0.16522223 [mEh]      -0.10367852 [kcal/mol]      -0.43379091 [kJ/mol]
      Ind20,r                      -0.16077167 [mEh]      -0.10088575 [kcal/mol]      -0.42210596 [kJ/mol]
      Ind22                        -0.00268172 [mEh]      -0.00168281 [kcal/mol]      -0.00704086 [kJ/mol]
      Exch-Ind20,r                  0.01043110 [mEh]       0.00654561 [kcal/mol]       0.02738685 [kJ/mol]
      Exch-Ind22                    0.00017399 [mEh]       0.00010918 [kcal/mol]       0.00045682 [kJ/mol]
      delta HF,r (2)               -0.01237393 [mEh]      -0.00776476 [kcal/mol]      -0.03248776 [kJ/mol]

    Dispersion                     -0.65294889 [mEh]      -0.40973161 [kcal/mol]      -1.71431708 [kJ/mol]
      Disp20                       -0.58256745 [mEh]      -0.36556660 [kcal/mol]      -1.52953064 [kJ/mol]
      Disp21                        0.03996343 [mEh]       0.02507743 [kcal/mol]       0.10492397 [kJ/mol]
      Disp22 (SDQ)                 -0.00142790 [mEh]      -0.00089602 [kcal/mol]      -0.00374894 [kJ/mol]
      Disp22 (T)                   -0.11144164 [mEh]      -0.06993068 [kcal/mol]      -0.29258998 [kJ/mol]
      Est. Disp22 (T)              -0.11778623 [mEh]      -0.07391198 [kcal/mol]      -0.30924771 [kJ/mol]
      Exch-Disp20                   0.00886926 [mEh]       0.00556555 [kcal/mol]       0.02328624 [kJ/mol]

  Total HF                         -2.72013710 [mEh]      -1.70691180 [kcal/mol]      -7.14171898 [kJ/mol]
  Total SAPT0                      -3.29383530 [mEh]      -2.06691285 [kcal/mol]      -8.64796338 [kJ/mol]
  Total SAPT2                      -2.98369318 [mEh]      -1.87229574 [kcal/mol]      -7.83368536 [kJ/mol]
  Total SAPT2+                     -3.06294388 [mEh]      -1.92202630 [kcal/mol]      -8.04175805 [kJ/mol]

  Special recipe for scaled SAPT0 (see Manual):
    Electrostatics sSAPT0          -2.62076914 [mEh]      -1.64455746 [kcal/mol]      -6.88082843 [kJ/mol]
    Exchange sSAPT0                 0.06334654 [mEh]       0.03975055 [kcal/mol]       0.16631632 [kJ/mol]
    Induction sSAPT0               -0.16271261 [mEh]      -0.10210371 [kcal/mol]      -0.42720190 [kJ/mol]
    Dispersion sSAPT0              -0.57369658 [mEh]      -0.36000004 [kcal/mol]      -1.50624017 [kJ/mol]
  Total sSAPT0                     -3.29383180 [mEh]      -2.06691066 [kcal/mol]      -8.64795419 [kJ/mol]
  --------------------------------------------------------------------------------------------------------

*** Psi4 exiting successfully. Buy a developer a beer!
