                               Psi4 1.4a2.dev224

  ==> Input File <==

--------------------------------------------------------------------------
#Generated by lconvert.py for sapt job

memory 50 GB

molecule  {
0 1
  O      -0.208780   -0.216870   -1.032410
  H       0.711130   -0.386890   -0.773960
  C      -1.022170   -0.741170   -0.005450
  H      -2.057490   -0.538710   -0.268600
  H      -0.907740   -1.821830    0.108540
  H      -0.824630   -0.275490    0.964640
--
0 1
  C       3.064810    1.912730    0.808930
  H       3.571200    2.874170    0.774060
  H       2.654270    1.766590    1.806810
  H       2.235160    1.903210    0.107430
  C       3.980440    0.757790    0.493010
  O       3.556250   -0.362120    0.207930
  N       5.306580    1.019510    0.552210
  H       5.604590    1.929940    0.849900
  C       6.288980   -0.020600    0.329470
  H       5.932430   -0.671540   -0.462710
  H       7.229350    0.432920    0.030960
  H       6.448490   -0.625130    1.221550
units angstrom
no_reorient
symmetry c1
}

set {
scf_type DF
basis aug-cc-pvtz
freeze_core True
guess SAD
}
energy('sapt2+')
--------------------------------------------------------------------------

  //              Dimer HF             //
    Molecular point group: c1
  Charge       = 0
  Multiplicity = 1
  Basis Set: AUG-CC-PVTZ
    Blend: AUG-CC-PVTZ
  Basis Set: (AUG-CC-PVTZ AUX)
    Blend: AUG-CC-PVTZ-JKFIT
  @DF-RHF Final Energy:  -362.19877502813210
    Total Energy =                       -362.1987750281321041
  //            Monomer A HF           //
    Molecular point group: c1
  Multiplicity = 1
  Basis Set: AUG-CC-PVTZ
    Blend: AUG-CC-PVTZ
  Basis Set: (AUG-CC-PVTZ AUX)
    Blend: AUG-CC-PVTZ-JKFIT
  @DF-RHF Final Energy:  -115.09154075302794
    Total Energy =                       -115.0915407530279424
  //            Monomer B HF           //
    Molecular point group: c1

    Geometry (in Angstrom), charge = 0, multiplicity = 1:

       Center              X                  Y                   Z               Mass
    ------------   -----------------  -----------------  -----------------  -----------------
      Gh(O)          -3.124984877639    -0.526575272146    -1.207986474748    15.994914619570
      Gh(H)          -2.205074877639    -0.696595272146    -0.949536474748     1.007825032230
      Gh(C)          -3.938374877639    -1.050875272146    -0.181026474748    12.000000000000
      Gh(H)          -4.973694877639    -0.848415272146    -0.444176474748     1.007825032230
      Gh(H)          -3.823944877639    -2.131535272146    -0.067036474748     1.007825032230
      Gh(H)          -3.740834877639    -0.585195272146     0.789063525252     1.007825032230
         C            0.148605122361     1.603024727854     0.633353525252    12.000000000000
         H            0.654995122361     2.564464727854     0.598483525252     1.007825032230
         H           -0.261934877639     1.456884727854     1.631233525252     1.007825032230
         H           -0.681044877639     1.593504727854    -0.068146474748     1.007825032230
         C            1.064235122361     0.448084727854     0.317433525252    12.000000000000
         O            0.640045122361    -0.671825272146     0.032353525252    15.994914619570
         N            2.390375122361     0.709804727854     0.376633525252    14.003074004430
         H            2.688385122361     1.620234727854     0.674323525252     1.007825032230
         C            3.372775122361    -0.330305272146     0.153893525252    12.000000000000
         H            3.016225122361    -0.981245272146    -0.638286474748     1.007825032230
         H            4.313145122361     0.123214727854    -0.144616474748     1.007825032230
         H            3.532285122361    -0.934835272146     1.045973525252     1.007825032230

  Charge       = 0
  Multiplicity = 1
  Basis Set: AUG-CC-PVTZ
    Blend: AUG-CC-PVTZ
  Basis Set: (AUG-CC-PVTZ AUX)
    Blend: AUG-CC-PVTZ-JKFIT

    Orbital Energies [Eh]
    ---------------------

    Doubly Occupied:

       1A    -20.509135     2A    -15.586733     3A    -11.345393
       4A    -11.257592     5A    -11.235599     6A     -1.370065
       7A     -1.230044     8A     -1.019810     9A     -0.933679
      10A     -0.790558    11A     -0.690238    12A     -0.651152
      13A     -0.634302    14A     -0.585746    15A     -0.577821
      16A     -0.557693    17A     -0.547460    18A     -0.499868
      19A     -0.419909    20A     -0.391522

  @DF-RHF Final Energy:  -247.10284338116816

   => Energetics <=

    Nuclear Repulsion Energy =            180.7388614787392669
    One-Electron Energy =                -694.0147726120701464
    Two-Electron Energy =                 266.1730677521626944
    Total Energy =                       -247.1028433811681566

  Dipole Moment: [D]
     X:     2.2238      Y:     3.4497      Z:     1.0169     Total:     4.2285

    SAPT Results
  --------------------------------------------------------------------------------------------------------
    Electrostatics                 -3.95443618 [mEh]      -2.48144617 [kcal/mol]     -10.38237077 [kJ/mol]
      Elst10,r                     -4.36892784 [mEh]      -2.74154361 [kcal/mol]     -11.47061847 [kJ/mol]
      Elst12,r                      0.41449166 [mEh]       0.26009744 [kcal/mol]       1.08824770 [kJ/mol]

    Exchange                        0.55731812 [mEh]       0.34972240 [kcal/mol]       1.46323853 [kJ/mol]
      Exch10                        0.41155932 [mEh]       0.25825737 [kcal/mol]       1.08054884 [kJ/mol]
      Exch10(S^2)                   0.41143425 [mEh]       0.25817889 [kcal/mol]       1.08022047 [kJ/mol]
      Exch11(S^2)                   0.00096024 [mEh]       0.00060256 [kcal/mol]       0.00252112 [kJ/mol]
      Exch12(S^2)                   0.14479856 [mEh]       0.09086247 [kcal/mol]       0.38016856 [kJ/mol]

    Induction                      -0.46237595 [mEh]      -0.29014529 [kcal/mol]      -1.21396790 [kJ/mol]
      Ind20,r                      -0.44600148 [mEh]      -0.27987015 [kcal/mol]      -1.17097672 [kJ/mol]
      Ind22                        -0.03471998 [mEh]      -0.02178712 [kcal/mol]      -0.09115730 [kJ/mol]
      Exch-Ind20,r                  0.07539692 [mEh]       0.04731228 [kcal/mol]       0.19795460 [kJ/mol]
      Exch-Ind22                    0.00586944 [mEh]       0.00368313 [kcal/mol]       0.01541022 [kJ/mol]
      delta HF,r (2)               -0.06292086 [mEh]      -0.03948344 [kcal/mol]      -0.16519870 [kJ/mol]

    Dispersion                     -1.41300476 [mEh]      -0.88667387 [kcal/mol]      -3.70984349 [kJ/mol]
      Disp20                       -1.26533964 [mEh]      -0.79401261 [kcal/mol]      -3.32214876 [kJ/mol]
      Disp21                        0.07056151 [mEh]       0.04427801 [kcal/mol]       0.18525921 [kJ/mol]
      Disp22 (SDQ)                 -0.01279339 [mEh]      -0.00802797 [kcal/mol]      -0.03358904 [kJ/mol]
      Disp22 (T)                   -0.23588883 [mEh]      -0.14802247 [kcal/mol]      -0.61932603 [kJ/mol]
      Est. Disp22 (T)              -0.25560166 [mEh]      -0.16039246 [kcal/mol]      -0.67108207 [kJ/mol]
      Exch-Disp20                   0.05016842 [mEh]       0.03148116 [kcal/mol]       0.13171717 [kJ/mol]

  Total HF                         -4.39089394 [mEh]      -2.75532754 [kcal/mol]     -11.52829044 [kJ/mol]
  Total SAPT0                      -5.60606515 [mEh]      -3.51785899 [kcal/mol]     -14.71872203 [kJ/mol]
  Total SAPT2                      -5.07466523 [mEh]      -3.18440051 [kcal/mol]     -13.32353173 [kJ/mol]
  Total SAPT2+                     -5.27249877 [mEh]      -3.30854293 [kcal/mol]     -13.84294362 [kJ/mol]

  Special recipe for scaled SAPT0 (see Manual):
    Electrostatics sSAPT0          -4.36892784 [mEh]      -2.74154361 [kcal/mol]     -11.47061847 [kJ/mol]
    Exchange sSAPT0                 0.41155932 [mEh]       0.25825737 [kcal/mol]       1.08054884 [kJ/mol]
    Induction sSAPT0               -0.43345663 [mEh]      -0.27199814 [kcal/mol]      -1.13804023 [kJ/mol]
    Dispersion sSAPT0              -1.21512545 [mEh]      -0.76250273 [kcal/mol]      -3.19031144 [kJ/mol]
  Total sSAPT0                     -5.60595061 [mEh]      -3.51778712 [kcal/mol]     -14.71842130 [kJ/mol]
  --------------------------------------------------------------------------------------------------------

*** Psi4 exiting successfully. Buy a developer a beer!
