                               Psi4 1.4a2.dev224

  ==> Input File <==

--------------------------------------------------------------------------
#Generated by lconvert.py for sapt job

memory 50 GB

molecule  {
0 1
  O      -0.208780   -0.216870   -1.032410
  H       0.711130   -0.386890   -0.773960
  C      -1.022170   -0.741170   -0.005450
  H      -2.057490   -0.538710   -0.268600
  H      -0.907740   -1.821830    0.108540
  H      -0.824630   -0.275490    0.964640
--
0 1
  C       2.531370    1.908080    0.624830
  H       3.037760    2.869530    0.589960
  H       2.120820    1.761950    1.622710
  H       1.701720    1.898570   -0.076670
  C       3.447000    0.753140    0.308920
  O       3.022800   -0.366770    0.023830
  N       4.773130    1.014870    0.368120
  H       5.071150    1.925290    0.665800
  C       5.755540   -0.025250    0.145370
  H       5.398980   -0.676180   -0.646800
  H       6.695910    0.428280   -0.153140
  H       5.915050   -0.629770    1.037450
units angstrom
no_reorient
symmetry c1
}

set {
scf_type DF
basis aug-cc-pvtz
freeze_core True
guess SAD
}
energy('sapt2+')
--------------------------------------------------------------------------

  //              Dimer HF             //
    Molecular point group: c1
  Charge       = 0
  Multiplicity = 1
  Basis Set: AUG-CC-PVTZ
    Blend: AUG-CC-PVTZ
  Basis Set: (AUG-CC-PVTZ AUX)
    Blend: AUG-CC-PVTZ-JKFIT
  @DF-RHF Final Energy:  -362.20150504593528
    Total Energy =                       -362.2015050459352778
  //            Monomer A HF           //
    Molecular point group: c1
  Multiplicity = 1
  Basis Set: AUG-CC-PVTZ
    Blend: AUG-CC-PVTZ
  Basis Set: (AUG-CC-PVTZ AUX)
    Blend: AUG-CC-PVTZ-JKFIT
  @DF-RHF Final Energy:  -115.09157170190805
    Total Energy =                       -115.0915717019080518
  //            Monomer B HF           //
    Molecular point group: c1

    Geometry (in Angstrom), charge = 0, multiplicity = 1:

       Center              X                  Y                   Z               Mass
    ------------   -----------------  -----------------  -----------------  -----------------
      Gh(O)          -2.754124911124    -0.523344418019    -1.079999470162    15.994914619570
      Gh(H)          -1.834214911124    -0.693364418019    -0.821549470162     1.007825032230
      Gh(C)          -3.567514911124    -1.047644418019    -0.053039470162    12.000000000000
      Gh(H)          -4.602834911124    -0.845184418019    -0.316189470162     1.007825032230
      Gh(H)          -3.453084911124    -2.128304418019     0.060950529838     1.007825032230
      Gh(H)          -3.369974911124    -0.581964418019     0.917050529838     1.007825032230
         C           -0.013974911124     1.601605581981     0.577240529838    12.000000000000
         H            0.492415088876     2.563055581981     0.542370529838     1.007825032230
         H           -0.424524911124     1.455475581981     1.575120529838     1.007825032230
         H           -0.843624911124     1.592095581981    -0.124259470162     1.007825032230
         C            0.901655088876     0.446665581981     0.261330529838    12.000000000000
         O            0.477455088876    -0.673244418019    -0.023759470162    15.994914619570
         N            2.227785088876     0.708395581981     0.320530529838    14.003074004430
         H            2.525805088876     1.618815581981     0.618210529838     1.007825032230
         C            3.210195088876    -0.331724418019     0.097780529838    12.000000000000
         H            2.853635088876    -0.982654418019    -0.694389470162     1.007825032230
         H            4.150565088876     0.121805581981    -0.200729470162     1.007825032230
         H            3.369705088876    -0.936244418019     0.989860529838     1.007825032230

  Charge       = 0
  Multiplicity = 1
  Basis Set: AUG-CC-PVTZ
    Blend: AUG-CC-PVTZ
  Basis Set: (AUG-CC-PVTZ AUX)
    Blend: AUG-CC-PVTZ-JKFIT

    Orbital Energies [Eh]
    ---------------------

    Doubly Occupied:

       1A    -20.509121     2A    -15.586732     3A    -11.345390
       4A    -11.257594     5A    -11.235600     6A     -1.370056
       7A     -1.230043     8A     -1.019807     9A     -0.933680
      10A     -0.790562    11A     -0.690235    12A     -0.651148
      13A     -0.634302    14A     -0.585744    15A     -0.577816
      16A     -0.557690    17A     -0.547463    18A     -0.499866
      19A     -0.419907    20A     -0.391521

  @DF-RHF Final Energy:  -247.10286725945724

   => Energetics <=

    Nuclear Repulsion Energy =            180.7387064981919309
    One-Electron Energy =                -694.0145921468015331
    Two-Electron Energy =                 266.1730183891523325
    Total Energy =                       -247.1028672594572413

  Dipole Moment: [D]
     X:     2.2237      Y:     3.4495      Z:     1.0168     Total:     4.2282

    SAPT Results
  --------------------------------------------------------------------------------------------------------
    Electrostatics                 -7.74790009 [mEh]      -4.86188071 [kcal/mol]     -20.34210888 [kJ/mol]
      Elst10,r                     -8.28182940 [mEh]      -5.19692641 [kcal/mol]     -21.74394010 [kJ/mol]
      Elst12,r                      0.53392932 [mEh]       0.33504570 [kcal/mol]       1.40183123 [kJ/mol]

    Exchange                        3.39833191 [mEh]       2.13248547 [kcal/mol]       8.92231920 [kJ/mol]
      Exch10                        2.66993934 [mEh]       1.67541223 [kcal/mol]       7.00992478 [kJ/mol]
      Exch10(S^2)                   2.66577956 [mEh]       1.67280193 [kcal/mol]       6.99900327 [kJ/mol]
      Exch11(S^2)                   0.01618342 [mEh]       0.01015525 [kcal/mol]       0.04248956 [kJ/mol]
      Exch12(S^2)                   0.71220915 [mEh]       0.44691799 [kcal/mol]       1.86990486 [kJ/mol]

    Induction                      -1.60803846 [mEh]      -1.00905937 [kcal/mol]      -4.22190439 [kJ/mol]
      Ind20,r                      -1.66118879 [mEh]      -1.04241170 [kcal/mol]      -4.36145057 [kJ/mol]
      Ind22                        -0.23781078 [mEh]      -0.14922852 [kcal/mol]      -0.62437211 [kJ/mol]
      Exch-Ind20,r                  0.58653673 [mEh]       0.36805736 [kcal/mol]       1.53995198 [kJ/mol]
      Exch-Ind22                    0.08396683 [mEh]       0.05268998 [kcal/mol]       0.22045488 [kJ/mol]
      delta HF,r (2)               -0.37954245 [mEh]      -0.23816648 [kcal/mol]      -0.99648857 [kJ/mol]

    Dispersion                     -3.32081220 [mEh]      -2.08384112 [kcal/mol]      -8.71879123 [kJ/mol]
      Disp20                       -3.08700749 [mEh]      -1.93712645 [kcal/mol]      -8.10493705 [kJ/mol]
      Disp21                        0.15361930 [mEh]       0.09639757 [kcal/mol]       0.40332743 [kJ/mol]
      Disp22 (SDQ)                 -0.04904915 [mEh]      -0.03077880 [kcal/mol]      -0.12877851 [kJ/mol]
      Disp22 (T)                   -0.55061221 [mEh]      -0.34551438 [kcal/mol]      -1.44563217 [kJ/mol]
      Est. Disp22 (T)              -0.61303972 [mEh]      -0.38468823 [kcal/mol]      -1.60953556 [kJ/mol]
      Exch-Disp20                   0.27466485 [mEh]       0.17235480 [kcal/mol]       0.72113247 [kJ/mol]

  Total HF                         -7.06608457 [mEh]      -4.43403501 [kcal/mol]     -18.55200248 [kJ/mol]
  Total SAPT0                      -9.87842721 [mEh]      -6.19880666 [kcal/mol]     -25.93580707 [kJ/mol]
  Total SAPT2                      -8.76994928 [mEh]      -5.50322626 [kcal/mol]     -23.02549865 [kJ/mol]
  Total SAPT2+                     -9.27841884 [mEh]      -5.82229572 [kcal/mol]     -24.36048530 [kJ/mol]

  Special recipe for scaled SAPT0 (see Manual):
    Electrostatics sSAPT0          -8.28182940 [mEh]      -5.19692641 [kcal/mol]     -21.74394010 [kJ/mol]
    Exchange sSAPT0                 2.66993934 [mEh]       1.67541223 [kcal/mol]       7.00992478 [kJ/mol]
    Induction sSAPT0               -1.45144446 [mEh]      -0.91079515 [kcal/mol]      -3.81076691 [kJ/mol]
    Dispersion sSAPT0              -2.81105484 [mEh]      -1.76396354 [kcal/mol]      -7.38042346 [kJ/mol]
  Total sSAPT0                     -9.87438936 [mEh]      -6.19627287 [kcal/mol]     -25.92520569 [kJ/mol]
  --------------------------------------------------------------------------------------------------------

*** Psi4 exiting successfully. Buy a developer a beer!
