                               Psi4 1.4a2.dev224

  ==> Input File <==

--------------------------------------------------------------------------
#Generated by lconvert.py for sapt job

memory 50 GB

molecule  {
0 1
  O      -0.786560    0.045170   -0.007190
  H       0.177710    0.012700   -0.006830
  C      -1.247990   -1.290280    0.001080
  H      -2.334280   -1.258900    0.000220
  H      -0.925970   -1.849770   -0.880450
  H      -0.927030   -1.838460    0.890080
--
0 1
  O       2.757190   -0.071960   -0.004070
  H       3.196390    0.316200   -0.763940
  H       3.195080    0.330650    0.749020
units angstrom
no_reorient
symmetry c1
}

set {
scf_type DF
basis aug-cc-pvtz
freeze_core True
guess SAD
}
energy('sapt2+')
--------------------------------------------------------------------------

  //              Dimer HF             //
    Molecular point group: c1
  Charge       = 0
  Multiplicity = 1
  Basis Set: AUG-CC-PVTZ
    Blend: AUG-CC-PVTZ
  Basis Set: (AUG-CC-PVTZ AUX)
    Blend: AUG-CC-PVTZ-JKFIT
  @DF-RHF Final Energy:  -191.15688819149997
    Total Energy =                       -191.1568881914999736
  //            Monomer A HF           //
    Molecular point group: c1
  Multiplicity = 1
  Basis Set: AUG-CC-PVTZ
    Blend: AUG-CC-PVTZ
  Basis Set: (AUG-CC-PVTZ AUX)
    Blend: AUG-CC-PVTZ-JKFIT
  @DF-RHF Final Energy:  -115.09191540589300
    Total Energy =                       -115.0919154058930047
  //            Monomer B HF           //
    Molecular point group: c1

    Geometry (in Angstrom), charge = 0, multiplicity = 1:

       Center              X                  Y                   Z               Mass
    ------------   -----------------  -----------------  -----------------  -----------------
      Gh(O)          -1.165175835309     0.449532439866    -0.003609916339    15.994914619570
      Gh(H)          -0.200905835309     0.417062439866    -0.003249916339     1.007825032230
      Gh(C)          -1.626605835309    -0.885917560134     0.004660083661    12.000000000000
      Gh(H)          -2.712895835309    -0.854537560134     0.003800083661     1.007825032230
      Gh(H)          -1.304585835309    -1.445407560134    -0.876869916339     1.007825032230
      Gh(H)          -1.305645835309    -1.434097560134     0.893660083661     1.007825032230
         O            2.378574164691     0.332402439866    -0.000489916339    15.994914619570
         H            2.817774164691     0.720562439866    -0.760359916339     1.007825032230
         H            2.816464164691     0.735012439866     0.752600083661     1.007825032230

  Charge       = 0
  Multiplicity = 1
  Basis Set: AUG-CC-PVTZ
    Blend: AUG-CC-PVTZ
  Basis Set: (AUG-CC-PVTZ AUX)
    Blend: AUG-CC-PVTZ-JKFIT

    Orbital Energies [Eh]
    ---------------------

    Doubly Occupied:

       1A    -20.567715     2A     -1.352611     3A     -0.715550
       4A     -0.585324     5A     -0.510285

  @DF-RHF Final Energy:   -76.06045835590159

   => Energetics <=

    Nuclear Repulsion Energy =              9.1723488778788749
    One-Electron Energy =                -123.0026406436179371
    Two-Electron Energy =                  37.7698334098374744
    Total Energy =                        -76.0604583559015879

  Dipole Moment: [D]
     X:     1.4793      Y:     1.3318      Z:    -0.0114     Total:     1.9905

    SAPT Results
  --------------------------------------------------------------------------------------------------------
    Electrostatics                 -4.67216829 [mEh]      -2.93182987 [kcal/mol]     -12.26677616 [kJ/mol]
      Elst10,r                     -4.97276583 [mEh]      -3.12045767 [kcal/mol]     -13.05599490 [kJ/mol]
      Elst12,r                      0.30059754 [mEh]       0.18862780 [kcal/mol]       0.78921873 [kJ/mol]

    Exchange                        1.33843800 [mEh]       0.83988252 [kcal/mol]       3.51406848 [kJ/mol]
      Exch10                        1.06890175 [mEh]       0.67074597 [kcal/mol]       2.80640115 [kJ/mol]
      Exch10(S^2)                   1.06794126 [mEh]       0.67014326 [kcal/mol]       2.80387940 [kJ/mol]
      Exch11(S^2)                   0.00572750 [mEh]       0.00359406 [kcal/mol]       0.01503755 [kJ/mol]
      Exch12(S^2)                   0.26380875 [mEh]       0.16554249 [kcal/mol]       0.69262978 [kJ/mol]

    Induction                      -0.66574349 [mEh]      -0.41776035 [kcal/mol]      -1.74790929 [kJ/mol]
      Ind20,r                      -0.65115560 [mEh]      -0.40860631 [kcal/mol]      -1.70960879 [kJ/mol]
      Ind22                        -0.07700649 [mEh]      -0.04832230 [kcal/mol]      -0.20218051 [kJ/mol]
      Exch-Ind20,r                  0.18457962 [mEh]       0.11582546 [kcal/mol]       0.48461373 [kJ/mol]
      Exch-Ind22                    0.02182862 [mEh]       0.01369767 [kcal/mol]       0.05731104 [kJ/mol]
      delta HF,r (2)               -0.14398964 [mEh]      -0.09035486 [kcal/mol]      -0.37804475 [kJ/mol]

    Dispersion                     -1.29990409 [mEh]      -0.81570213 [kcal/mol]      -3.41289771 [kJ/mol]
      Disp20                       -1.17329009 [mEh]      -0.73625065 [kcal/mol]      -3.08047272 [kJ/mol]
      Disp21                        0.01598652 [mEh]       0.01003169 [kcal/mol]       0.04197261 [kJ/mol]
      Disp22 (SDQ)                 -0.02294207 [mEh]      -0.01439636 [kcal/mol]      -0.06023439 [kJ/mol]
      Disp22 (T)                   -0.18923599 [mEh]      -0.11874738 [kcal/mol]      -0.49683902 [kJ/mol]
      Est. Disp22 (T)              -0.21572773 [mEh]      -0.13537119 [kcal/mol]      -0.56639306 [kJ/mol]
      Exch-Disp20                   0.09606928 [mEh]       0.06028438 [kcal/mol]       0.25222985 [kJ/mol]

  Total HF                         -4.51442971 [mEh]      -2.83284741 [kcal/mol]     -11.85263356 [kJ/mol]
  Total SAPT0                      -5.59165052 [mEh]      -3.50881368 [kcal/mol]     -14.68087642 [kJ/mol]
  Total SAPT2                      -5.07669460 [mEh]      -3.18567396 [kcal/mol]     -13.32885984 [kJ/mol]
  Total SAPT2+                     -5.29937787 [mEh]      -3.32540982 [kcal/mol]     -13.91351468 [kJ/mol]

  Special recipe for scaled SAPT0 (see Manual):
    Electrostatics sSAPT0          -4.97276583 [mEh]      -3.12045767 [kcal/mol]     -13.05599490 [kJ/mol]
    Exchange sSAPT0                 1.06890175 [mEh]       0.67074597 [kcal/mol]       2.80640115 [kJ/mol]
    Induction sSAPT0               -0.61006715 [mEh]      -0.38282292 [kcal/mol]      -1.60173109 [kJ/mol]
    Dispersion sSAPT0              -1.07696138 [mEh]      -0.67580347 [kcal/mol]      -2.82756170 [kJ/mol]
  Total sSAPT0                     -5.59089261 [mEh]      -3.50833808 [kcal/mol]     -14.67888653 [kJ/mol]
  --------------------------------------------------------------------------------------------------------

*** Psi4 exiting successfully. Buy a developer a beer!
