                               Psi4 1.4a2.dev224

  ==> Input File <==

--------------------------------------------------------------------------
#Generated by lconvert.py for sapt job

memory 50 GB

molecule  {
0 1
  O      -0.786560    0.045170   -0.007190
  H       0.177710    0.012700   -0.006830
  C      -1.247990   -1.290280    0.001080
  H      -2.334280   -1.258900    0.000220
  H      -0.925970   -1.849770   -0.880450
  H      -0.927030   -1.838460    0.890080
--
0 1
  O       3.352430   -0.091490   -0.003430
  H       3.791640    0.296660   -0.763300
  H       3.790320    0.311110    0.749660
units angstrom
no_reorient
symmetry c1
}

set {
scf_type DF
basis aug-cc-pvtz
freeze_core True
guess SAD
}
energy('sapt2+')
--------------------------------------------------------------------------

  //              Dimer HF             //
    Molecular point group: c1
  Charge       = 0
  Multiplicity = 1
  Basis Set: AUG-CC-PVTZ
    Blend: AUG-CC-PVTZ
  Basis Set: (AUG-CC-PVTZ AUX)
    Blend: AUG-CC-PVTZ-JKFIT
  @DF-RHF Final Energy:  -191.15504852201741
    Total Energy =                       -191.1550485220174096
  //            Monomer A HF           //
    Molecular point group: c1
  Multiplicity = 1
  Basis Set: AUG-CC-PVTZ
    Blend: AUG-CC-PVTZ
  Basis Set: (AUG-CC-PVTZ AUX)
    Blend: AUG-CC-PVTZ-JKFIT
  @DF-RHF Final Energy:  -115.09189922948029
    Total Energy =                       -115.0918992294802905
  //            Monomer B HF           //
    Molecular point group: c1

    Geometry (in Angstrom), charge = 0, multiplicity = 1:

       Center              X                  Y                   Z               Mass
    ------------   -----------------  -----------------  -----------------  -----------------
      Gh(O)          -1.379430603949     0.456562598256    -0.003840282112    15.994914619570
      Gh(H)          -0.415160603949     0.424092598256    -0.003480282112     1.007825032230
      Gh(C)          -1.840860603949    -0.878887401744     0.004429717888    12.000000000000
      Gh(H)          -2.927150603949    -0.847507401744     0.003569717888     1.007825032230
      Gh(H)          -1.518840603949    -1.438377401744    -0.877100282112     1.007825032230
      Gh(H)          -1.519900603949    -1.427067401744     0.893429717888     1.007825032230
         O            2.759559396051     0.319902598256    -0.000080282112    15.994914619570
         H            3.198769396051     0.708052598256    -0.759950282112     1.007825032230
         H            3.197449396051     0.722502598256     0.753009717888     1.007825032230

  Charge       = 0
  Multiplicity = 1
  Basis Set: AUG-CC-PVTZ
    Blend: AUG-CC-PVTZ
  Basis Set: (AUG-CC-PVTZ AUX)
    Blend: AUG-CC-PVTZ-JKFIT

    Orbital Energies [Eh]
    ---------------------

    Doubly Occupied:

       1A    -20.567809     2A     -1.352667     3A     -0.715607
       4A     -0.585369     5A     -0.510294

  @DF-RHF Final Energy:   -76.06041798565712

   => Energetics <=

    Nuclear Repulsion Energy =              9.1723657144482456
    One-Electron Energy =                -123.0020743604587494
    Two-Electron Energy =                  37.7692906603533700
    Total Energy =                        -76.0604179856571250

  Dipole Moment: [D]
     X:     1.4804      Y:     1.3331      Z:    -0.0114     Total:     1.9922

    SAPT Results
  --------------------------------------------------------------------------------------------------------
    Electrostatics                 -2.46036476 [mEh]      -1.54390220 [kcal/mol]      -6.45968679 [kJ/mol]
      Elst10,r                     -2.68327040 [mEh]      -1.68377760 [kcal/mol]      -7.04492547 [kJ/mol]
      Elst12,r                      0.22290564 [mEh]       0.13987540 [kcal/mol]       0.58523868 [kJ/mol]

    Exchange                        0.15546741 [mEh]       0.09755727 [kcal/mol]       0.40817962 [kJ/mol]
      Exch10                        0.11600941 [mEh]       0.07279701 [kcal/mol]       0.30458267 [kJ/mol]
      Exch10(S^2)                   0.11599517 [mEh]       0.07278807 [kcal/mol]       0.30454528 [kJ/mol]
      Exch11(S^2)                  -0.00012787 [mEh]      -0.00008024 [kcal/mol]      -0.00033571 [kJ/mol]
      Exch12(S^2)                   0.03958586 [mEh]       0.02484050 [kcal/mol]       0.10393266 [kJ/mol]

    Induction                      -0.17253596 [mEh]      -0.10826795 [kcal/mol]      -0.45299309 [kJ/mol]
      Ind20,r                      -0.16179954 [mEh]      -0.10153074 [kcal/mol]      -0.42480463 [kJ/mol]
      Ind22                        -0.00940028 [mEh]      -0.00589876 [kcal/mol]      -0.02468043 [kJ/mol]
      Exch-Ind20,r                  0.01566683 [mEh]       0.00983108 [kcal/mol]       0.04113325 [kJ/mol]
      Exch-Ind22                    0.00091022 [mEh]       0.00057117 [kcal/mol]       0.00238977 [kJ/mol]
      delta HF,r (2)               -0.01791318 [mEh]      -0.01124069 [kcal/mol]      -0.04703105 [kJ/mol]

    Dispersion                     -0.46124427 [mEh]      -0.28943515 [kcal/mol]      -1.21099665 [kJ/mol]
      Disp20                       -0.40098504 [mEh]      -0.25162191 [kcal/mol]      -1.05278608 [kJ/mol]
      Disp21                        0.00969941 [mEh]       0.00608647 [kcal/mol]       0.02546579 [kJ/mol]
      Disp22 (SDQ)                 -0.00686861 [mEh]      -0.00431012 [kcal/mol]      -0.01803352 [kJ/mol]
      Disp22 (T)                   -0.06870381 [mEh]      -0.04311229 [kcal/mol]      -0.18038183 [kJ/mol]
      Est. Disp22 (T)              -0.07569837 [mEh]      -0.04750145 [kcal/mol]      -0.19874605 [kJ/mol]
      Exch-Disp20                   0.01260835 [mEh]       0.00791186 [kcal/mol]       0.03310321 [kJ/mol]

  Total HF                         -2.73130688 [mEh]      -1.71392094 [kcal/mol]      -7.17104523 [kJ/mol]
  Total SAPT0                      -3.11968358 [mEh]      -1.95763100 [kcal/mol]      -8.19072810 [kJ/mol]
  Total SAPT2                      -2.86581001 [mEh]      -1.79832293 [kcal/mol]      -7.52418313 [kJ/mol]
  Total SAPT2+                     -2.93867758 [mEh]      -1.84404802 [kcal/mol]      -7.71549691 [kJ/mol]

  Special recipe for scaled SAPT0 (see Manual):
    Electrostatics sSAPT0          -2.68327040 [mEh]      -1.68377760 [kcal/mol]      -7.04492547 [kJ/mol]
    Exchange sSAPT0                 0.11600941 [mEh]       0.07279701 [kcal/mol]       0.30458267 [kJ/mol]
    Induction sSAPT0               -0.16404012 [mEh]      -0.10293673 [kcal/mol]      -0.43068728 [kJ/mol]
    Dispersion sSAPT0              -0.38837205 [mEh]      -0.24370714 [kcal/mol]      -1.01967068 [kJ/mol]
  Total sSAPT0                     -3.11967316 [mEh]      -1.95762446 [kcal/mol]      -8.19070075 [kJ/mol]
  --------------------------------------------------------------------------------------------------------

*** Psi4 exiting successfully. Buy a developer a beer!
