                               Psi4 1.4a2.dev224

  ==> Input File <==

--------------------------------------------------------------------------
#Generated by lconvert.py for sapt job

memory 50 GB

molecule  {
0 1
  O      -0.786560    0.045170   -0.007190
  H       0.177710    0.012700   -0.006830
  C      -1.247990   -1.290280    0.001080
  H      -2.334280   -1.258900    0.000220
  H      -0.925970   -1.849770   -0.880450
  H      -0.927030   -1.838460    0.890080
--
0 1
  O       3.947670   -0.111030   -0.002790
  H       4.386880    0.277120   -0.762660
  H       4.385560    0.291570    0.750300
units angstrom
no_reorient
symmetry c1
}

set {
scf_type DF
basis aug-cc-pvtz
freeze_core True
guess SAD
}
energy('sapt2+')
--------------------------------------------------------------------------

  //              Dimer HF             //
    Molecular point group: c1
  Charge       = 0
  Multiplicity = 1
  Basis Set: AUG-CC-PVTZ
    Blend: AUG-CC-PVTZ
  Basis Set: (AUG-CC-PVTZ AUX)
    Blend: AUG-CC-PVTZ-JKFIT
  @DF-RHF Final Energy:  -191.15399276616924
    Total Energy =                       -191.1539927661692388
  //            Monomer A HF           //
    Molecular point group: c1
  Multiplicity = 1
  Basis Set: AUG-CC-PVTZ
    Blend: AUG-CC-PVTZ
  Basis Set: (AUG-CC-PVTZ AUX)
    Blend: AUG-CC-PVTZ-JKFIT
  @DF-RHF Final Energy:  -115.09189302870374
    Total Energy =                       -115.0918930287037369
  //            Monomer B HF           //
    Molecular point group: c1

    Geometry (in Angstrom), charge = 0, multiplicity = 1:

       Center              X                  Y                   Z               Mass
    ------------   -----------------  -----------------  -----------------  -----------------
      Gh(O)          -1.593685171171     0.463595953279    -0.004070647886    15.994914619570
      Gh(H)          -0.629415171171     0.431125953279    -0.003710647886     1.007825032230
      Gh(C)          -2.055115171171    -0.871854046721     0.004199352114    12.000000000000
      Gh(H)          -3.141405171171    -0.840474046721     0.003339352114     1.007825032230
      Gh(H)          -1.733095171171    -1.431344046721    -0.877330647886     1.007825032230
      Gh(H)          -1.734155171171    -1.420034046721     0.893199352114     1.007825032230
         O            3.140544828829     0.307395953279     0.000329352114    15.994914619570
         H            3.579754828829     0.695545953279    -0.759540647886     1.007825032230
         H            3.578434828829     0.709995953279     0.753419352114     1.007825032230

  Charge       = 0
  Multiplicity = 1
  Basis Set: AUG-CC-PVTZ
    Blend: AUG-CC-PVTZ
  Basis Set: (AUG-CC-PVTZ AUX)
    Blend: AUG-CC-PVTZ-JKFIT

    Orbital Energies [Eh]
    ---------------------

    Doubly Occupied:

       1A    -20.567836     2A     -1.352683     3A     -0.715624
       4A     -0.585384     5A     -0.510296

  @DF-RHF Final Energy:   -76.06041011021550

   => Energetics <=

    Nuclear Repulsion Energy =              9.1723657144482456
    One-Electron Energy =                -123.0019018839518026
    Two-Electron Energy =                  37.7691260592880553
    Total Energy =                        -76.0604101102154999

  Dipole Moment: [D]
     X:     1.4806      Y:     1.3337      Z:    -0.0114     Total:     1.9928

    SAPT Results
  --------------------------------------------------------------------------------------------------------
    Electrostatics                 -1.49123228 [mEh]      -0.93576238 [kcal/mol]      -3.91522981 [kJ/mol]
      Elst10,r                     -1.64358252 [mEh]      -1.03136360 [kcal/mol]      -4.31522532 [kJ/mol]
      Elst12,r                      0.15235024 [mEh]       0.09560122 [kcal/mol]       0.39999551 [kJ/mol]

    Exchange                        0.01769866 [mEh]       0.01110608 [kcal/mol]       0.04646783 [kJ/mol]
      Exch10                        0.01235537 [mEh]       0.00775311 [kcal/mol]       0.03243903 [kJ/mol]
      Exch10(S^2)                   0.01235517 [mEh]       0.00775299 [kcal/mol]       0.03243850 [kJ/mol]
      Exch11(S^2)                  -0.00009191 [mEh]      -0.00005767 [kcal/mol]      -0.00024130 [kJ/mol]
      Exch12(S^2)                   0.00543520 [mEh]       0.00341064 [kcal/mol]       0.01427011 [kJ/mol]

    Induction                      -0.05932763 [mEh]      -0.03722865 [kcal/mol]      -0.15576467 [kJ/mol]
      Ind20,r                      -0.05725666 [mEh]      -0.03592909 [kcal/mol]      -0.15032733 [kJ/mol]
      Ind22                        -0.00095338 [mEh]      -0.00059825 [kcal/mol]      -0.00250309 [kJ/mol]
      Exch-Ind20,r                  0.00155237 [mEh]       0.00097413 [kcal/mol]       0.00407575 [kJ/mol]
      Exch-Ind22                    0.00002585 [mEh]       0.00001622 [kcal/mol]       0.00006787 [kJ/mol]
      delta HF,r (2)               -0.00269582 [mEh]      -0.00169165 [kcal/mol]      -0.00707786 [kJ/mol]

    Dispersion                     -0.18627884 [mEh]      -0.11689174 [kcal/mol]      -0.48907504 [kJ/mol]
      Disp20                       -0.16229429 [mEh]      -0.10184120 [kcal/mol]      -0.42610359 [kJ/mol]
      Disp21                        0.00676800 [mEh]       0.00424699 [kcal/mol]       0.01776939 [kJ/mol]
      Disp22 (SDQ)                 -0.00171185 [mEh]      -0.00107420 [kcal/mol]      -0.00449447 [kJ/mol]
      Disp22 (T)                   -0.02876758 [mEh]      -0.01805193 [kcal/mol]      -0.07552926 [kJ/mol]
      Est. Disp22 (T)              -0.03061851 [mEh]      -0.01921341 [kcal/mol]      -0.08038890 [kJ/mol]
      Exch-Disp20                   0.00157781 [mEh]       0.00099009 [kcal/mol]       0.00414253 [kJ/mol]

  Total HF                         -1.68962725 [mEh]      -1.06025711 [kcal/mol]      -4.43611573 [kJ/mol]
  Total SAPT0                      -1.85034373 [mEh]      -1.16110822 [kcal/mol]      -4.85807679 [kJ/mol]
  Total SAPT2                      -1.69357772 [mEh]      -1.06273607 [kcal/mol]      -4.44648770 [kJ/mol]
  Total SAPT2+                     -1.71914009 [mEh]      -1.07877669 [kcal/mol]      -4.51360168 [kJ/mol]

  Special recipe for scaled SAPT0 (see Manual):
    Electrostatics sSAPT0          -1.64358252 [mEh]      -1.03136360 [kcal/mol]      -4.31522532 [kJ/mol]
    Exchange sSAPT0                 0.01235537 [mEh]       0.00775311 [kcal/mol]       0.03243903 [kJ/mol]
    Induction sSAPT0               -0.05840002 [mEh]      -0.03664657 [kcal/mol]      -0.15332924 [kJ/mol]
    Dispersion sSAPT0              -0.16071640 [mEh]      -0.10085106 [kcal/mol]      -0.42196085 [kJ/mol]
  Total sSAPT0                     -1.85034358 [mEh]      -1.16110812 [kcal/mol]      -4.85807639 [kJ/mol]
  --------------------------------------------------------------------------------------------------------

*** Psi4 exiting successfully. Buy a developer a beer!
