                               Psi4 1.4a2.dev224

  ==> Input File <==

--------------------------------------------------------------------------
#Generated by lconvert.py for sapt job

memory 50 GB

molecule  {
0 1
  N      -0.893450   -0.043840   -0.043000
  H       0.096950   -0.256060   -0.071070
  H      -1.368440   -0.933390    0.033840
  C      -1.175780    0.757910    1.145240
  H      -2.241630    0.972220    1.195030
  H      -0.880790    0.304250    2.097210
  H      -0.663010    1.714330    1.060810
--
0 1
  O       3.697180    0.087230    0.091690
  H       3.979200    0.457180   -0.748170
  C       4.083090    0.998810    1.111130
  H       3.759910    0.569180    2.054190
  H       5.164150    1.137900    1.150170
  H       3.604620    1.972410    0.995950
units angstrom
no_reorient
symmetry c1
}

set {
scf_type DF
basis aug-cc-pvtz
freeze_core True
guess SAD
}
energy('sapt2+')
--------------------------------------------------------------------------

  //              Dimer HF             //
    Molecular point group: c1
  Charge       = 0
  Multiplicity = 1
  Basis Set: AUG-CC-PVTZ
    Blend: AUG-CC-PVTZ
  Basis Set: (AUG-CC-PVTZ AUX)
    Blend: AUG-CC-PVTZ-JKFIT
  @DF-RHF Final Energy:  -210.34851511415636
    Total Energy =                       -210.3485151141563563
  //            Monomer A HF           //
    Molecular point group: c1
  Multiplicity = 1
  Basis Set: AUG-CC-PVTZ
    Blend: AUG-CC-PVTZ
  Basis Set: (AUG-CC-PVTZ AUX)
    Blend: AUG-CC-PVTZ-JKFIT
  @DF-RHF Final Energy:   -95.25538689942711
    Total Energy =                        -95.2553868994271085
  //            Monomer B HF           //
    Molecular point group: c1

    Geometry (in Angstrom), charge = 0, multiplicity = 1:

       Center              X                  Y                   Z               Mass
    ------------   -----------------  -----------------  -----------------  -----------------
      Gh(N)          -2.368884537196    -0.485367939386    -0.610155947910    14.003074004430
      Gh(H)          -1.378484537196    -0.697587939386    -0.638225947910     1.007825032230
      Gh(H)          -2.843874537196    -1.374917939386    -0.533315947910     1.007825032230
      Gh(C)          -2.651214537196     0.316382060614     0.578084052090    12.000000000000
      Gh(H)          -3.717064537196     0.530692060614     0.627874052090     1.007825032230
      Gh(H)          -2.356224537196    -0.137277939386     1.530054052090     1.007825032230
      Gh(H)          -2.138444537196     1.272802060614     0.493654052090     1.007825032230
         O            2.221745462804    -0.354297939386    -0.475465947910    15.994914619570
         H            2.503765462804     0.015652060614    -1.315325947910     1.007825032230
         C            2.607655462804     0.557282060614     0.543974052090    12.000000000000
         H            2.284475462804     0.127652060614     1.487034052090     1.007825032230
         H            3.688715462804     0.696372060614     0.583014052090     1.007825032230
         H            2.129185462804     1.530882060614     0.428794052090     1.007825032230

  Charge       = 0
  Multiplicity = 1
  Basis Set: AUG-CC-PVTZ
    Blend: AUG-CC-PVTZ
  Basis Set: (AUG-CC-PVTZ AUX)
    Blend: AUG-CC-PVTZ-JKFIT

    Orbital Energies [Eh]
    ---------------------

    Doubly Occupied:

       1A    -20.559590     2A    -11.270542     3A     -1.358080
       4A     -0.926445     5A     -0.691503     6A     -0.620940
       7A     -0.593227     8A     -0.505221     9A     -0.452285

  @DF-RHF Final Energy:  -115.09208785555715

   => Energetics <=

    Nuclear Repulsion Energy =             40.3471522642164118
    One-Electron Energy =                -236.9228116003291404
    Two-Electron Energy =                  81.4835714805555682
    Total Energy =                       -115.0920878555571534

  Dipole Moment: [D]
     X:     0.8679      Y:     1.5806      Z:    -0.2113     Total:     1.8155

    SAPT Results
  --------------------------------------------------------------------------------------------------------
    Electrostatics                 -0.96249558 [mEh]      -0.60397510 [kcal/mol]      -2.52703180 [kJ/mol]
      Elst10,r                     -1.01718076 [mEh]      -0.63829056 [kcal/mol]      -2.67060772 [kJ/mol]
      Elst12,r                      0.05468518 [mEh]       0.03431547 [kcal/mol]       0.14357592 [kJ/mol]

    Exchange                        0.05372982 [mEh]       0.03371597 [kcal/mol]       0.14106761 [kJ/mol]
      Exch10                        0.03910265 [mEh]       0.02453728 [kcal/mol]       0.10266399 [kJ/mol]
      Exch10(S^2)                   0.03910114 [mEh]       0.02453634 [kcal/mol]       0.10266003 [kJ/mol]
      Exch11(S^2)                  -0.00093380 [mEh]      -0.00058597 [kcal/mol]      -0.00245169 [kJ/mol]
      Exch12(S^2)                   0.01556097 [mEh]       0.00976465 [kcal/mol]       0.04085531 [kJ/mol]

    Induction                      -0.06428507 [mEh]      -0.04033949 [kcal/mol]      -0.16878042 [kJ/mol]
      Ind20,r                      -0.06242840 [mEh]      -0.03917441 [kcal/mol]      -0.16390574 [kJ/mol]
      Ind22                        -0.00216834 [mEh]      -0.00136065 [kcal/mol]      -0.00569297 [kJ/mol]
      Exch-Ind20,r                  0.00473128 [mEh]       0.00296892 [kcal/mol]       0.01242198 [kJ/mol]
      Exch-Ind22                    0.00016433 [mEh]       0.00010312 [kcal/mol]       0.00043145 [kJ/mol]
      delta HF,r (2)               -0.00458394 [mEh]      -0.00287647 [kcal/mol]      -0.01203514 [kJ/mol]

    Dispersion                     -0.45711739 [mEh]      -0.28684549 [kcal/mol]      -1.20016153 [kJ/mol]
      Disp20                       -0.42219058 [mEh]      -0.26492859 [kcal/mol]      -1.10846123 [kJ/mol]
      Disp21                        0.02497464 [mEh]       0.01567183 [kcal/mol]       0.06557092 [kJ/mol]
      Disp22 (SDQ)                  0.00773989 [mEh]       0.00485685 [kcal/mol]       0.02032107 [kJ/mol]
      Disp22 (T)                   -0.06931833 [mEh]      -0.04349791 [kcal/mol]      -0.18199524 [kJ/mol]
      Est. Disp22 (T)              -0.07319860 [mEh]      -0.04593281 [kcal/mol]      -0.19218289 [kJ/mol]
      Exch-Disp20                   0.00555726 [mEh]       0.00348723 [kcal/mol]       0.01459059 [kJ/mol]

  Total HF                         -1.04035917 [mEh]      -0.65283524 [kcal/mol]      -2.73146263 [kJ/mol]
  Total SAPT0                      -1.45699249 [mEh]      -0.91427659 [kcal/mol]      -3.82533327 [kJ/mol]
  Total SAPT2                      -1.38968415 [mEh]      -0.87203997 [kcal/mol]      -3.64861524 [kJ/mol]
  Total SAPT2+                     -1.43016822 [mEh]      -0.89744411 [kcal/mol]      -3.75490614 [kJ/mol]

  Special recipe for scaled SAPT0 (see Manual):
    Electrostatics sSAPT0          -1.01718076 [mEh]      -0.63829056 [kcal/mol]      -2.67060772 [kJ/mol]
    Exchange sSAPT0                 0.03910265 [mEh]       0.02453728 [kcal/mol]       0.10266399 [kJ/mol]
    Induction sSAPT0               -0.06228051 [mEh]      -0.03908161 [kcal/mol]      -0.16351746 [kJ/mol]
    Dispersion sSAPT0              -0.41663268 [mEh]      -0.26144095 [kcal/mol]      -1.09386895 [kJ/mol]
  Total sSAPT0                     -1.45699130 [mEh]      -0.91427585 [kcal/mol]      -3.82533014 [kJ/mol]
  --------------------------------------------------------------------------------------------------------

*** Psi4 exiting successfully. Buy a developer a beer!
