                               Psi4 1.4a2.dev224

  ==> Input File <==

--------------------------------------------------------------------------
#Generated by lconvert.py for sapt job

memory 50 GB

molecule  {
0 1
  N      -0.893450   -0.043840   -0.043000
  H       0.096950   -0.256060   -0.071070
  H      -1.368440   -0.933390    0.033840
  C      -1.175780    0.757910    1.145240
  H      -2.241630    0.972220    1.195030
  H      -0.880790    0.304250    2.097210
  H      -0.663010    1.714330    1.060810
--
0 1
  O       3.022150    0.022860    0.061180
  H       3.304180    0.392810   -0.778690
  C       3.408070    0.934450    1.080610
  H       3.084880    0.504820    2.023680
  H       4.489120    1.073530    1.119650
  H       2.929590    1.908050    0.965430
units angstrom
no_reorient
symmetry c1
}

set {
scf_type DF
basis aug-cc-pvtz
freeze_core True
guess SAD
}
energy('sapt2+')
--------------------------------------------------------------------------

  //              Dimer HF             //
    Molecular point group: c1
  Charge       = 0
  Multiplicity = 1
  Basis Set: AUG-CC-PVTZ
    Blend: AUG-CC-PVTZ
  Basis Set: (AUG-CC-PVTZ AUX)
    Blend: AUG-CC-PVTZ-JKFIT
  @DF-RHF Final Energy:  -210.34930667666515
    Total Energy =                       -210.3493066766651509
  //            Monomer A HF           //
    Molecular point group: c1
  Multiplicity = 1
  Basis Set: AUG-CC-PVTZ
    Blend: AUG-CC-PVTZ
  Basis Set: (AUG-CC-PVTZ AUX)
    Blend: AUG-CC-PVTZ-JKFIT
  @DF-RHF Final Energy:   -95.25539621688095
    Total Energy =                        -95.2553962168809534
  //            Monomer B HF           //
    Molecular point group: c1

    Geometry (in Angstrom), charge = 0, multiplicity = 1:

       Center              X                  Y                   Z               Mass
    ------------   -----------------  -----------------  -----------------  -----------------
      Gh(N)          -2.026105571914    -0.452682999985    -0.594660551942    14.003074004430
      Gh(H)          -1.035705571914    -0.664902999985    -0.622730551942     1.007825032230
      Gh(H)          -2.501095571914    -1.342232999985    -0.517820551942     1.007825032230
      Gh(C)          -2.308435571914     0.349067000015     0.593579448058    12.000000000000
      Gh(H)          -3.374285571914     0.563377000015     0.643369448058     1.007825032230
      Gh(H)          -2.013445571914    -0.104592999985     1.545549448058     1.007825032230
      Gh(H)          -1.795665571914     1.305487000015     0.509149448058     1.007825032230
         O            1.889494428086    -0.385982999985    -0.490480551942    15.994914619570
         H            2.171524428086    -0.016032999985    -1.330350551942     1.007825032230
         C            2.275414428086     0.525607000015     0.528949448058    12.000000000000
         H            1.952224428086     0.095977000015     1.472019448058     1.007825032230
         H            3.356464428086     0.664687000015     0.567989448058     1.007825032230
         H            1.796934428086     1.499207000015     0.413769448058     1.007825032230

  Charge       = 0
  Multiplicity = 1
  Basis Set: AUG-CC-PVTZ
    Blend: AUG-CC-PVTZ
  Basis Set: (AUG-CC-PVTZ AUX)
    Blend: AUG-CC-PVTZ-JKFIT

    Orbital Energies [Eh]
    ---------------------

    Doubly Occupied:

       1A    -20.559546     2A    -11.270536     3A     -1.358052
       4A     -0.926429     5A     -0.691479     6A     -0.620939
       7A     -0.593205     8A     -0.505203     9A     -0.452286

  @DF-RHF Final Energy:  -115.09212090057248

   => Energetics <=

    Nuclear Repulsion Energy =             40.3470530819711826
    One-Electron Energy =                -236.9229938759030745
    Two-Electron Energy =                  81.4838198933594100
    Total Energy =                       -115.0921209005724819

  Dipole Moment: [D]
     X:     0.8677      Y:     1.5801      Z:    -0.2113     Total:     1.8150

    SAPT Results
  --------------------------------------------------------------------------------------------------------
    Electrostatics                 -1.97957532 [mEh]      -1.24220227 [kcal/mol]      -5.19737428 [kJ/mol]
      Elst10,r                     -2.02265687 [mEh]      -1.26923635 [kcal/mol]      -5.31048488 [kJ/mol]
      Elst12,r                      0.04308155 [mEh]       0.02703408 [kcal/mol]       0.11311060 [kJ/mol]

    Exchange                        0.58964305 [mEh]       0.37000660 [kcal/mol]       1.54810761 [kJ/mol]
      Exch10                        0.46479329 [mEh]       0.29166219 [kcal/mol]       1.22031460 [kJ/mol]
      Exch10(S^2)                   0.46462180 [mEh]       0.29155458 [kcal/mol]       1.21986437 [kJ/mol]
      Exch11(S^2)                  -0.00460603 [mEh]      -0.00289033 [kcal/mol]      -0.01209312 [kJ/mol]
      Exch12(S^2)                   0.12945579 [mEh]       0.08123473 [kcal/mol]       0.33988613 [kJ/mol]

    Induction                      -0.25322685 [mEh]      -0.15890225 [kcal/mol]      -0.66484700 [kJ/mol]
      Ind20,r                      -0.25201201 [mEh]      -0.15813993 [kcal/mol]      -0.66165745 [kJ/mol]
      Ind22                        -0.02932724 [mEh]      -0.01840312 [kcal/mol]      -0.07699866 [kJ/mol]
      Exch-Ind20,r                  0.06699198 [mEh]       0.04203810 [kcal/mol]       0.17588743 [kJ/mol]
      Exch-Ind22                    0.00779602 [mEh]       0.00489207 [kcal/mol]       0.02046844 [kJ/mol]
      delta HF,r (2)               -0.04667559 [mEh]      -0.02928938 [kcal/mol]      -0.12254675 [kJ/mol]

    Dispersion                     -1.26160801 [mEh]      -0.79167098 [kcal/mol]      -3.31235137 [kJ/mol]
      Disp20                       -1.17369696 [mEh]      -0.73650596 [kcal/mol]      -3.08154094 [kJ/mol]
      Disp21                        0.04663276 [mEh]       0.02926250 [kcal/mol]       0.12243430 [kJ/mol]
      Disp22 (SDQ)                  0.01336839 [mEh]       0.00838879 [kcal/mol]       0.03509870 [kJ/mol]
      Disp22 (T)                   -0.18467499 [mEh]      -0.11588530 [kcal/mol]      -0.48486412 [kJ/mol]
      Est. Disp22 (T)              -0.20176890 [mEh]      -0.12661190 [kcal/mol]      -0.52974418 [kJ/mol]
      Exch-Disp20                   0.05385670 [mEh]       0.03379559 [kcal/mol]       0.14140074 [kJ/mol]

  Total HF                         -1.78955921 [mEh]      -1.12296536 [kcal/mol]      -4.69848706 [kJ/mol]
  Total SAPT0                      -2.90939947 [mEh]      -1.82567573 [kcal/mol]      -7.63862726 [kJ/mol]
  Total SAPT2                      -2.76299938 [mEh]      -1.73380829 [kcal/mol]      -7.25425387 [kJ/mol]
  Total SAPT2+                     -2.90476713 [mEh]      -1.82276889 [kcal/mol]      -7.62646505 [kJ/mol]

  Special recipe for scaled SAPT0 (see Manual):
    Electrostatics sSAPT0          -2.02265687 [mEh]      -1.26923635 [kcal/mol]      -5.31048488 [kJ/mol]
    Exchange sSAPT0                 0.46479329 [mEh]       0.29166219 [kcal/mol]       1.22031460 [kJ/mol]
    Induction sSAPT0               -0.23162142 [mEh]      -0.14534464 [kcal/mol]      -0.60812196 [kJ/mol]
    Dispersion sSAPT0              -1.11978060 [mEh]      -0.70267294 [kcal/mol]      -2.93998357 [kJ/mol]
  Total sSAPT0                     -2.90926561 [mEh]      -1.82559173 [kcal/mol]      -7.63827581 [kJ/mol]
  --------------------------------------------------------------------------------------------------------

*** Psi4 exiting successfully. Buy a developer a beer!
