                               Psi4 1.4a2.dev224

  ==> Input File <==

--------------------------------------------------------------------------
#Generated by lconvert.py for sapt job

memory 50 GB

molecule  {
0 1
  N      -0.893450   -0.043840   -0.043000
  H       0.096950   -0.256060   -0.071070
  H      -1.368440   -0.933390    0.033840
  C      -1.175780    0.757910    1.145240
  H      -2.241630    0.972220    1.195030
  H      -0.880790    0.304250    2.097210
  H      -0.663010    1.714330    1.060810
--
0 1
  O       4.372200    0.151590    0.122210
  H       4.654230    0.521540   -0.717660
  C       4.758120    1.063180    1.141640
  H       4.434930    0.633550    2.084710
  H       5.839170    1.202260    1.180680
  H       4.279640    2.036780    1.026470
units angstrom
no_reorient
symmetry c1
}

set {
scf_type DF
basis aug-cc-pvtz
freeze_core True
guess SAD
}
energy('sapt2+')
--------------------------------------------------------------------------

  //              Dimer HF             //
    Molecular point group: c1
  Charge       = 0
  Multiplicity = 1
  Basis Set: AUG-CC-PVTZ
    Blend: AUG-CC-PVTZ
  Basis Set: (AUG-CC-PVTZ AUX)
    Blend: AUG-CC-PVTZ-JKFIT
  @DF-RHF Final Energy:  -210.34807744831443
    Total Energy =                       -210.3480774483144273
  //            Monomer A HF           //
    Molecular point group: c1
  Multiplicity = 1
  Basis Set: AUG-CC-PVTZ
    Blend: AUG-CC-PVTZ
  Basis Set: (AUG-CC-PVTZ AUX)
    Blend: AUG-CC-PVTZ-JKFIT
  @DF-RHF Final Energy:   -95.25538302253507
    Total Energy =                        -95.2553830225350708
  //            Monomer B HF           //
    Molecular point group: c1

    Geometry (in Angstrom), charge = 0, multiplicity = 1:

       Center              X                  Y                   Z               Mass
    ------------   -----------------  -----------------  -----------------  -----------------
      Gh(N)          -2.711662549455    -0.518052245360    -0.625651817506    14.003074004430
      Gh(H)          -1.721262549455    -0.730272245360    -0.653721817506     1.007825032230
      Gh(H)          -3.186652549455    -1.407602245360    -0.548811817506     1.007825032230
      Gh(C)          -2.993992549455     0.283697754640     0.562588182494    12.000000000000
      Gh(H)          -4.059842549455     0.498007754640     0.612378182494     1.007825032230
      Gh(H)          -2.699002549455    -0.169962245360     1.514558182494     1.007825032230
      Gh(H)          -2.481222549455     1.240117754640     0.478158182494     1.007825032230
         O            2.553987450545    -0.322622245360    -0.460441817506    15.994914619570
         H            2.836017450545     0.047327754640    -1.300311817506     1.007825032230
         C            2.939907450545     0.588967754640     0.558988182494    12.000000000000
         H            2.616717450545     0.159337754640     1.502058182494     1.007825032230
         H            4.020957450545     0.728047754640     0.598028182494     1.007825032230
         H            2.461427450545     1.562567754640     0.443818182494     1.007825032230

  Charge       = 0
  Multiplicity = 1
  Basis Set: AUG-CC-PVTZ
    Blend: AUG-CC-PVTZ
  Basis Set: (AUG-CC-PVTZ AUX)
    Blend: AUG-CC-PVTZ-JKFIT

    Orbital Energies [Eh]
    ---------------------

    Doubly Occupied:

       1A    -20.559597     2A    -11.270538     3A     -1.358080
       4A     -0.926445     5A     -0.691502     6A     -0.620942
       7A     -0.593224     8A     -0.505220     9A     -0.452287

  @DF-RHF Final Energy:  -115.09207865792169

   => Energetics <=

    Nuclear Repulsion Energy =             40.3470521683313592
    One-Electron Energy =                -236.9225915201204771
    Two-Electron Energy =                  81.4834606938674426
    Total Energy =                       -115.0920786579216895

  Dipole Moment: [D]
     X:     0.8680      Y:     1.5807      Z:    -0.2113     Total:     1.8157

    SAPT Results
  --------------------------------------------------------------------------------------------------------
    Electrostatics                 -0.55606751 [mEh]      -0.34893763 [kcal/mol]      -1.45995504 [kJ/mol]
      Elst10,r                     -0.59619908 [mEh]      -0.37412057 [kcal/mol]      -1.56532046 [kJ/mol]
      Elst12,r                      0.04013157 [mEh]       0.02518294 [kcal/mol]       0.10536542 [kJ/mol]

    Exchange                        0.00482217 [mEh]       0.00302596 [kcal/mol]       0.01266061 [kJ/mol]
      Exch10                        0.00324513 [mEh]       0.00203635 [kcal/mol]       0.00852008 [kJ/mol]
      Exch10(S^2)                   0.00324511 [mEh]       0.00203634 [kcal/mol]       0.00852005 [kJ/mol]
      Exch11(S^2)                  -0.00012193 [mEh]      -0.00007651 [kcal/mol]      -0.00032013 [kJ/mol]
      Exch12(S^2)                   0.00169898 [mEh]       0.00106612 [kcal/mol]       0.00446066 [kJ/mol]

    Induction                      -0.02258125 [mEh]      -0.01416995 [kcal/mol]      -0.05928705 [kJ/mol]
      Ind20,r                      -0.02240795 [mEh]      -0.01406120 [kcal/mol]      -0.05883207 [kJ/mol]
      Ind22                         0.00023645 [mEh]       0.00014838 [kcal/mol]       0.00062080 [kJ/mol]
      Exch-Ind20,r                  0.00035923 [mEh]       0.00022542 [kcal/mol]       0.00094315 [kJ/mol]
      Exch-Ind22                   -0.00000379 [mEh]      -0.00000238 [kcal/mol]      -0.00000995 [kJ/mol]
      delta HF,r (2)               -0.00076518 [mEh]      -0.00048016 [kcal/mol]      -0.00200899 [kJ/mol]

    Dispersion                     -0.19260967 [mEh]      -0.12086439 [kcal/mol]      -0.50569661 [kJ/mol]
      Disp20                       -0.18025509 [mEh]      -0.11311178 [kcal/mol]      -0.47325967 [kJ/mol]
      Disp21                        0.01367237 [mEh]       0.00857954 [kcal/mol]       0.03589680 [kJ/mol]
      Disp22 (SDQ)                  0.00453956 [mEh]       0.00284862 [kcal/mol]       0.01191862 [kJ/mol]
      Disp22 (T)                   -0.03000778 [mEh]      -0.01883017 [kcal/mol]      -0.07878542 [kJ/mol]
      Est. Disp22 (T)              -0.03111568 [mEh]      -0.01952538 [kcal/mol]      -0.08169419 [kJ/mol]
      Exch-Disp20                   0.00054917 [mEh]       0.00034461 [kcal/mol]       0.00144185 [kJ/mol]

  Total HF                         -0.61576786 [mEh]      -0.38640016 [kcal/mol]      -1.61669829 [kJ/mol]
  Total SAPT0                      -0.79547378 [mEh]      -0.49916733 [kcal/mol]      -2.08851611 [kJ/mol]
  Total SAPT2                      -0.75353250 [mEh]      -0.47284878 [kcal/mol]      -1.97839931 [kJ/mol]
  Total SAPT2+                     -0.76643625 [mEh]      -0.48094601 [kcal/mol]      -2.01227809 [kJ/mol]

  Special recipe for scaled SAPT0 (see Manual):
    Electrostatics sSAPT0          -0.59619908 [mEh]      -0.37412057 [kcal/mol]      -1.56532046 [kJ/mol]
    Exchange sSAPT0                 0.00324513 [mEh]       0.00203635 [kcal/mol]       0.00852008 [kJ/mol]
    Induction sSAPT0               -0.02281391 [mEh]      -0.01431594 [kcal/mol]      -0.05989791 [kJ/mol]
    Dispersion sSAPT0              -0.17970592 [mEh]      -0.11276717 [kcal/mol]      -0.47181783 [kJ/mol]
  Total sSAPT0                     -0.79547378 [mEh]      -0.49916733 [kcal/mol]      -2.08851611 [kJ/mol]
  --------------------------------------------------------------------------------------------------------

*** Psi4 exiting successfully. Buy a developer a beer!
