                               Psi4 1.4a2.dev224

  ==> Input File <==

--------------------------------------------------------------------------
#Generated by lconvert.py for sapt job

memory 50 GB

molecule  {
0 1
  N      -0.638640    0.470920    0.044570
  H       0.189950   -0.113940   -0.005770
  H      -1.300470    0.081260   -0.613670
  C      -1.198660    0.391400    1.391950
  H      -2.092740    1.009240    1.453170
  H      -1.462750   -0.615840    1.729450
  H      -0.480280    0.798680    2.101090
--
0 1
  N       4.447300   -0.772280    0.385120
  H       4.743570   -0.497740   -0.542860
  H       5.070850   -1.519970    0.660320
  C       4.607530    0.362930    1.298800
  H       4.337340    0.048230    2.304450
  H       5.614940    0.784700    1.335770
  H       3.914990    1.148700    1.006140
units angstrom
no_reorient
symmetry c1
}

set {
scf_type DF
basis aug-cc-pvtz
freeze_core True
guess SAD
}
energy('sapt2+')
--------------------------------------------------------------------------

  //              Dimer HF             //
    Molecular point group: c1
  Charge       = 0
  Multiplicity = 1
  Basis Set: AUG-CC-PVTZ
    Blend: AUG-CC-PVTZ
  Basis Set: (AUG-CC-PVTZ AUX)
    Blend: AUG-CC-PVTZ-JKFIT
  @DF-RHF Final Energy:  -190.51148624872840
    Total Energy =                       -190.5114862487284029
  //            Monomer A HF           //
    Molecular point group: c1
  Multiplicity = 1
  Basis Set: AUG-CC-PVTZ
    Blend: AUG-CC-PVTZ
  Basis Set: (AUG-CC-PVTZ AUX)
    Blend: AUG-CC-PVTZ-JKFIT
  @DF-RHF Final Energy:   -95.25532639777677
    Total Energy =                        -95.2553263977767699
  //            Monomer B HF           //
    Molecular point group: c1

    Geometry (in Angstrom), charge = 0, multiplicity = 1:

       Center              X                  Y                   Z               Mass
    ------------   -----------------  -----------------  -----------------  -----------------
      Gh(N)          -2.457451665659     0.374855549131    -0.725476054438    14.003074004430
      Gh(H)          -1.628861665659    -0.210004450869    -0.775816054438     1.007825032230
      Gh(H)          -3.119281665659    -0.014804450869    -1.383716054438     1.007825032230
      Gh(C)          -3.017471665659     0.295335549131     0.621903945562    12.000000000000
      Gh(H)          -3.911551665659     0.913175549131     0.683123945562     1.007825032230
      Gh(H)          -3.281561665659    -0.711904450869     0.959403945562     1.007825032230
      Gh(H)          -2.299091665659     0.702615549131     1.331043945562     1.007825032230
         N            2.628488334341    -0.868344450869    -0.384926054438    14.003074004430
         H            2.924758334341    -0.593804450869    -1.312906054438     1.007825032230
         H            3.252038334341    -1.616034450869    -0.109726054438     1.007825032230
         C            2.788718334341     0.266865549131     0.528753945562    12.000000000000
         H            2.518528334341    -0.047834450869     1.534403945562     1.007825032230
         H            3.796128334341     0.688635549131     0.565723945562     1.007825032230
         H            2.096178334341     1.052635549131     0.236093945562     1.007825032230

  Charge       = 0
  Multiplicity = 1
  Basis Set: AUG-CC-PVTZ
    Blend: AUG-CC-PVTZ
  Basis Set: (AUG-CC-PVTZ AUX)
    Blend: AUG-CC-PVTZ-JKFIT

    Orbital Energies [Eh]
    ---------------------

    Doubly Occupied:

       1A    -15.540075     2A    -11.240428     3A     -1.170513
       4A     -0.896364     5A     -0.661684     6A     -0.604302
       7A     -0.554948     8A     -0.517170     9A     -0.393962

  @DF-RHF Final Energy:   -95.25541601285853

   => Energetics <=

    Nuclear Repulsion Energy =             42.0598477466429372
    One-Electron Energy =                -211.4716339964741678
    Two-Electron Energy =                  74.1563702369727054
    Total Energy =                        -95.2554160128585323

  Dipole Moment: [D]
     X:     1.3901      Y:     0.4209      Z:    -0.0195     Total:     1.4526

    SAPT Results
  --------------------------------------------------------------------------------------------------------
    Electrostatics                 -0.71083804 [mEh]      -0.44605760 [kcal/mol]      -1.86630501 [kJ/mol]
      Elst10,r                     -0.71914741 [mEh]      -0.45127182 [kcal/mol]      -1.88812128 [kJ/mol]
      Elst12,r                      0.00830938 [mEh]       0.00521421 [kcal/mol]       0.02181626 [kJ/mol]

    Exchange                        0.01094510 [mEh]       0.00686816 [kcal/mol]       0.02873637 [kJ/mol]
      Exch10                        0.00810579 [mEh]       0.00508646 [kcal/mol]       0.02128174 [kJ/mol]
      Exch10(S^2)                   0.00810573 [mEh]       0.00508642 [kcal/mol]       0.02128159 [kJ/mol]
      Exch11(S^2)                  -0.00011954 [mEh]      -0.00007501 [kcal/mol]      -0.00031385 [kJ/mol]
      Exch12(S^2)                   0.00295886 [mEh]       0.00185671 [kcal/mol]       0.00776848 [kJ/mol]

    Induction                      -0.03397280 [mEh]      -0.02131825 [kcal/mol]      -0.08919557 [kJ/mol]
      Ind20,r                      -0.03279343 [mEh]      -0.02057819 [kcal/mol]      -0.08609915 [kJ/mol]
      Ind22                        -0.00121491 [mEh]      -0.00076237 [kcal/mol]      -0.00318976 [kJ/mol]
      Exch-Ind20,r                  0.00104137 [mEh]       0.00065347 [kcal/mol]       0.00273412 [kJ/mol]
      Exch-Ind22                    0.00003858 [mEh]       0.00002421 [kcal/mol]       0.00010129 [kJ/mol]
      delta HF,r (2)               -0.00104440 [mEh]      -0.00065537 [kcal/mol]      -0.00274207 [kJ/mol]

    Dispersion                     -0.27991131 [mEh]      -0.17564700 [kcal/mol]      -0.73490705 [kJ/mol]
      Disp20                       -0.26782154 [mEh]      -0.16806055 [kcal/mol]      -0.70316534 [kJ/mol]
      Disp21                        0.02100552 [mEh]       0.01318116 [kcal/mol]       0.05514997 [kJ/mol]
      Disp22 (SDQ)                  0.01041217 [mEh]       0.00653373 [kcal/mol]       0.02733714 [kJ/mol]
      Disp22 (T)                   -0.04295592 [mEh]      -0.02695525 [kcal/mol]      -0.11278075 [kJ/mol]
      Est. Disp22 (T)              -0.04496446 [mEh]      -0.02821563 [kcal/mol]      -0.11805418 [kJ/mol]
      Exch-Disp20                   0.00145700 [mEh]       0.00091428 [kcal/mol]       0.00382535 [kJ/mol]

  Total HF                         -0.74383809 [mEh]      -0.46676545 [kcal/mol]      -1.95294664 [kJ/mol]
  Total SAPT0                      -1.01020263 [mEh]      -0.63391172 [kcal/mol]      -2.65228664 [kJ/mol]
  Total SAPT2                      -1.00023027 [mEh]      -0.62765397 [kcal/mol]      -2.62610421 [kJ/mol]
  Total SAPT2+                     -1.01377705 [mEh]      -0.63615470 [kcal/mol]      -2.66167127 [kJ/mol]

  Special recipe for scaled SAPT0 (see Manual):
    Electrostatics sSAPT0          -0.71914741 [mEh]      -0.45127182 [kcal/mol]      -1.88812128 [kJ/mol]
    Exchange sSAPT0                 0.00810579 [mEh]       0.00508646 [kcal/mol]       0.02128174 [kJ/mol]
    Induction sSAPT0               -0.03279647 [mEh]      -0.02058009 [kcal/mol]      -0.08610711 [kJ/mol]
    Dispersion sSAPT0              -0.26636454 [mEh]      -0.16714627 [kcal/mol]      -0.69933999 [kJ/mol]
  Total sSAPT0                     -1.01020263 [mEh]      -0.63391172 [kcal/mol]      -2.65228664 [kJ/mol]
  --------------------------------------------------------------------------------------------------------

*** Psi4 exiting successfully. Buy a developer a beer!
