                               Psi4 1.4a2.dev224

  ==> Input File <==

--------------------------------------------------------------------------
#Generated by lconvert.py for sapt job

memory 50 GB

molecule  {
0 1
  N      -0.638640    0.470920    0.044570
  H       0.189950   -0.113940   -0.005770
  H      -1.300470    0.081260   -0.613670
  C      -1.198660    0.391400    1.391950
  H      -2.092740    1.009240    1.453170
  H      -1.462750   -0.615840    1.729450
  H      -0.480280    0.798680    2.101090
--
0 1
  N       3.102910   -0.564390    0.261690
  H       3.399180   -0.289850   -0.666300
  H       3.726460   -1.312080    0.536880
  C       3.263140    0.570820    1.175360
  H       2.992950    0.256130    2.181010
  H       4.270550    0.992600    1.212330
  H       2.570600    1.356600    0.882700
units angstrom
no_reorient
symmetry c1
}

set {
scf_type DF
basis aug-cc-pvtz
freeze_core True
guess SAD
}
energy('sapt2+')
--------------------------------------------------------------------------

  //              Dimer HF             //
    Molecular point group: c1
  Charge       = 0
  Multiplicity = 1
  Basis Set: AUG-CC-PVTZ
    Blend: AUG-CC-PVTZ
  Basis Set: (AUG-CC-PVTZ AUX)
    Blend: AUG-CC-PVTZ-JKFIT
  @DF-RHF Final Energy:  -190.51306795572623
    Total Energy =                       -190.5130679557262283
  //            Monomer A HF           //
    Molecular point group: c1
  Multiplicity = 1
  Basis Set: AUG-CC-PVTZ
    Blend: AUG-CC-PVTZ
  Basis Set: (AUG-CC-PVTZ AUX)
    Blend: AUG-CC-PVTZ-JKFIT
  @DF-RHF Final Energy:   -95.25534208366727
    Total Energy =                        -95.2553420836672728
  //            Monomer B HF           //
    Molecular point group: c1

    Geometry (in Angstrom), charge = 0, multiplicity = 1:

       Center              X                  Y                   Z               Mass
    ------------   -----------------  -----------------  -----------------  -----------------
      Gh(N)          -1.785256665659     0.270910062136    -0.663758309928    14.003074004430
      Gh(H)          -0.956666665659    -0.313949937864    -0.714098309928     1.007825032230
      Gh(H)          -2.447086665659    -0.118749937864    -1.321998309928     1.007825032230
      Gh(C)          -2.345276665659     0.191390062136     0.683621690072    12.000000000000
      Gh(H)          -3.239356665659     0.809230062136     0.744841690072     1.007825032230
      Gh(H)          -2.609366665659    -0.815849937864     1.021121690072     1.007825032230
      Gh(H)          -1.626896665659     0.598670062136     1.392761690072     1.007825032230
         N            1.956293334341    -0.764399937864    -0.446638309928    14.003074004430
         H            2.252563334341    -0.489859937864    -1.374628309928     1.007825032230
         H            2.579843334341    -1.512089937864    -0.171448309928     1.007825032230
         C            2.116523334341     0.370810062136     0.467031690072    12.000000000000
         H            1.846333334341     0.056120062136     1.472681690072     1.007825032230
         H            3.123933334341     0.792590062136     0.504001690072     1.007825032230
         H            1.423983334341     1.156590062136     0.174371690072     1.007825032230

  Charge       = 0
  Multiplicity = 1
  Basis Set: AUG-CC-PVTZ
    Blend: AUG-CC-PVTZ
  Basis Set: (AUG-CC-PVTZ AUX)
    Blend: AUG-CC-PVTZ-JKFIT

    Orbital Energies [Eh]
    ---------------------

    Doubly Occupied:

       1A    -15.540067     2A    -11.240440     3A     -1.170513
       4A     -0.896362     5A     -0.661681     6A     -0.604302
       7A     -0.554947     8A     -0.517167     9A     -0.393962

  @DF-RHF Final Energy:   -95.25543608310178

   => Energetics <=

    Nuclear Repulsion Energy =             42.0598607433650571
    One-Electron Energy =                -211.4717083399657724
    Two-Electron Energy =                  74.1564115134989379
    Total Energy =                        -95.2554360831017846

  Dipole Moment: [D]
     X:     1.3901      Y:     0.4210      Z:    -0.0195     Total:     1.4526

    SAPT Results
  --------------------------------------------------------------------------------------------------------
    Electrostatics                 -2.87435734 [mEh]      -1.80368646 [kcal/mol]      -7.54662416 [kJ/mol]
      Elst10,r                     -2.81142133 [mEh]      -1.76419352 [kcal/mol]      -7.38138569 [kJ/mol]
      Elst12,r                     -0.06293601 [mEh]      -0.03949294 [kcal/mol]      -0.16523847 [kJ/mol]

    Exchange                        1.08574800 [mEh]       0.68131716 [kcal/mol]       2.85063098 [kJ/mol]
      Exch10                        0.91224565 [mEh]       0.57244279 [kcal/mol]       2.39510062 [kJ/mol]
      Exch10(S^2)                   0.91173184 [mEh]       0.57212037 [kcal/mol]       2.39375162 [kJ/mol]
      Exch11(S^2)                   0.00767794 [mEh]       0.00481798 [kcal/mol]       0.02015842 [kJ/mol]
      Exch12(S^2)                   0.16582441 [mEh]       0.10405639 [kcal/mol]       0.43537194 [kJ/mol]

    Induction                      -0.42485800 [mEh]      -0.26660242 [kcal/mol]      -1.11546453 [kJ/mol]
      Ind20,r                      -0.44179225 [mEh]      -0.27722882 [kcal/mol]      -1.15992539 [kJ/mol]
      Ind22                        -0.05092252 [mEh]      -0.03195436 [kcal/mol]      -0.13369705 [kJ/mol]
      Exch-Ind20,r                  0.14469271 [mEh]       0.09079604 [kcal/mol]       0.37989065 [kJ/mol]
      Exch-Ind22                    0.01667779 [mEh]       0.01046547 [kcal/mol]       0.04378752 [kJ/mol]
      delta HF,r (2)               -0.09351373 [mEh]      -0.05868075 [kcal/mol]      -0.24552026 [kJ/mol]

    Dispersion                     -1.90807540 [mEh]      -1.19733539 [kcal/mol]      -5.00965126 [kJ/mol]
      Disp20                       -1.85413320 [mEh]      -1.16348615 [kcal/mol]      -4.86802605 [kJ/mol]
      Disp21                        0.08360873 [mEh]       0.05246527 [kcal/mol]       0.21951470 [kJ/mol]
      Disp22 (SDQ)                  0.05530831 [mEh]       0.03470649 [kcal/mol]       0.14521195 [kJ/mol]
      Disp22 (T)                   -0.27481974 [mEh]      -0.17245199 [kcal/mol]      -0.72153912 [kJ/mol]
      Est. Disp22 (T)              -0.30386146 [mEh]      -0.19067595 [kcal/mol]      -0.79778816 [kJ/mol]
      Exch-Disp20                   0.11100223 [mEh]       0.06965495 [kcal/mol]       0.29143630 [kJ/mol]

  Total HF                         -2.28978896 [mEh]      -1.43686426 [kcal/mol]      -6.01184008 [kJ/mol]
  Total SAPT0                      -4.03291993 [mEh]      -2.53069547 [kcal/mol]     -10.58842983 [kJ/mol]
  Total SAPT2                      -3.95659832 [mEh]      -2.48280293 [kcal/mol]     -10.38804745 [kJ/mol]
  Total SAPT2+                     -4.12154274 [mEh]      -2.58630711 [kcal/mol]     -10.82110897 [kJ/mol]

  Special recipe for scaled SAPT0 (see Manual):
    Electrostatics sSAPT0          -2.81142133 [mEh]      -1.76419352 [kcal/mol]      -7.38138569 [kJ/mol]
    Exchange sSAPT0                 0.91224565 [mEh]       0.57244279 [kcal/mol]       2.39510062 [kJ/mol]
    Induction sSAPT0               -0.39036851 [mEh]      -0.24495994 [kcal/mol]      -1.02491238 [kJ/mol]
    Dispersion sSAPT0              -1.74294320 [mEh]      -1.09371337 [kcal/mol]      -4.57609675 [kJ/mol]
  Total sSAPT0                     -4.03248740 [mEh]      -2.53042404 [kcal/mol]     -10.58729420 [kJ/mol]
  --------------------------------------------------------------------------------------------------------

*** Psi4 exiting successfully. Buy a developer a beer!
