                               Psi4 1.4a2.dev224

  ==> Input File <==

--------------------------------------------------------------------------
#Generated by lconvert.py for sapt job

memory 50 GB

molecule  {
0 1
  N      -0.638640    0.470920    0.044570
  H       0.189950   -0.113940   -0.005770
  H      -1.300470    0.081260   -0.613670
  C      -1.198660    0.391400    1.391950
  H      -2.092740    1.009240    1.453170
  H      -1.462750   -0.615840    1.729450
  H      -0.480280    0.798680    2.101090
--
0 1
  N       3.775100   -0.668340    0.323400
  H       4.071370   -0.393800   -0.604580
  H       4.398650   -1.416030    0.598600
  C       3.935330    0.466880    1.237080
  H       3.665140    0.152180    2.242730
  H       4.942740    0.888650    1.274050
  H       3.242790    1.252650    0.944420
units angstrom
no_reorient
symmetry c1
}

set {
scf_type DF
basis aug-cc-pvtz
freeze_core True
guess SAD
}
energy('sapt2+')
--------------------------------------------------------------------------

  //              Dimer HF             //
    Molecular point group: c1
  Charge       = 0
  Multiplicity = 1
  Basis Set: AUG-CC-PVTZ
    Blend: AUG-CC-PVTZ
  Basis Set: (AUG-CC-PVTZ AUX)
    Blend: AUG-CC-PVTZ-JKFIT
  @DF-RHF Final Energy:  -190.51206984536381
    Total Energy =                       -190.5120698453638113
  //            Monomer A HF           //
    Molecular point group: c1
  Multiplicity = 1
  Basis Set: AUG-CC-PVTZ
    Blend: AUG-CC-PVTZ
  Basis Set: (AUG-CC-PVTZ AUX)
    Blend: AUG-CC-PVTZ-JKFIT
  @DF-RHF Final Energy:   -95.25533131467942
    Total Energy =                        -95.2553313146794238
  //            Monomer B HF           //
    Molecular point group: c1

    Geometry (in Angstrom), charge = 0, multiplicity = 1:

       Center              X                  Y                   Z               Mass
    ------------   -----------------  -----------------  -----------------  -----------------
      Gh(N)          -2.121351665659     0.322883129284    -0.694616054438    14.003074004430
      Gh(H)          -1.292761665659    -0.261976870716    -0.744956054438     1.007825032230
      Gh(H)          -2.783181665659    -0.066776870716    -1.352856054438     1.007825032230
      Gh(C)          -2.681371665659     0.243363129284     0.652763945562    12.000000000000
      Gh(H)          -3.575451665659     0.861203129284     0.713983945562     1.007825032230
      Gh(H)          -2.945461665659    -0.763876870716     0.990263945562     1.007825032230
      Gh(H)          -1.962991665659     0.650643129284     1.361903945562     1.007825032230
         N            2.292388334341    -0.816376870716    -0.415786054438    14.003074004430
         H            2.588658334341    -0.541836870716    -1.343766054438     1.007825032230
         H            2.915938334341    -1.564066870716    -0.140586054438     1.007825032230
         C            2.452618334341     0.318843129284     0.497893945562    12.000000000000
         H            2.182428334341     0.004143129284     1.503543945562     1.007825032230
         H            3.460028334341     0.740613129284     0.534863945562     1.007825032230
         H            1.760078334341     1.104613129284     0.205233945562     1.007825032230

  Charge       = 0
  Multiplicity = 1
  Basis Set: AUG-CC-PVTZ
    Blend: AUG-CC-PVTZ
  Basis Set: (AUG-CC-PVTZ AUX)
    Blend: AUG-CC-PVTZ-JKFIT

    Orbital Energies [Eh]
    ---------------------

    Doubly Occupied:

       1A    -15.540074     2A    -11.240434     3A     -1.170511
       4A     -0.896365     5A     -0.661683     6A     -0.604301
       7A     -0.554947     8A     -0.517171     9A     -0.393963

  @DF-RHF Final Energy:   -95.25542170151171

   => Energetics <=

    Nuclear Repulsion Energy =             42.0597373907508825
    One-Electron Energy =                -211.4714182929589867
    Two-Electron Energy =                  74.1562592006963968
    Total Energy =                        -95.2554217015117075

  Dipole Moment: [D]
     X:     1.3901      Y:     0.4210      Z:    -0.0195     Total:     1.4526

    SAPT Results
  --------------------------------------------------------------------------------------------------------
    Electrostatics                 -1.30542337 [mEh]      -0.81916553 [kcal/mol]      -3.42738858 [kJ/mol]
      Elst10,r                     -1.30698868 [mEh]      -0.82014778 [kcal/mol]      -3.43149831 [kJ/mol]
      Elst12,r                      0.00156531 [mEh]       0.00098225 [kcal/mol]       0.00410973 [kJ/mol]

    Exchange                        0.11034142 [mEh]       0.06924029 [kcal/mol]       0.28970136 [kJ/mol]
      Exch10                        0.08714291 [mEh]       0.05468300 [kcal/mol]       0.22879368 [kJ/mol]
      Exch10(S^2)                   0.08713738 [mEh]       0.05467953 [kcal/mol]       0.22877916 [kJ/mol]
      Exch11(S^2)                  -0.00030149 [mEh]      -0.00018919 [kcal/mol]      -0.00079157 [kJ/mol]
      Exch12(S^2)                   0.02350000 [mEh]       0.01474647 [kcal/mol]       0.06169925 [kJ/mol]

    Induction                      -0.10331755 [mEh]      -0.06483274 [kcal/mol]      -0.27126020 [kJ/mol]
      Ind20,r                      -0.09965481 [mEh]      -0.06253434 [kcal/mol]      -0.26164367 [kJ/mol]
      Ind22                        -0.00719316 [mEh]      -0.00451378 [kcal/mol]      -0.01888564 [kJ/mol]
      Exch-Ind20,r                  0.01190081 [mEh]       0.00746787 [kcal/mol]       0.03124558 [kJ/mol]
      Exch-Ind22                    0.00085901 [mEh]       0.00053904 [kcal/mol]       0.00225533 [kJ/mol]
      delta HF,r (2)               -0.00922941 [mEh]      -0.00579154 [kcal/mol]      -0.02423180 [kJ/mol]

    Dispersion                     -0.68248631 [mEh]      -0.42826662 [kcal/mol]      -1.79186755 [kJ/mol]
      Disp20                       -0.64901932 [mEh]      -0.40726577 [kcal/mol]      -1.70399999 [kJ/mol]
      Disp21                        0.03984734 [mEh]       0.02500459 [kcal/mol]       0.10461919 [kJ/mol]
      Disp22 (SDQ)                  0.02200426 [mEh]       0.01380788 [kcal/mol]       0.05777217 [kJ/mol]
      Disp22 (T)                   -0.10097923 [mEh]      -0.06336543 [kcal/mol]      -0.26512094 [kJ/mol]
      Est. Disp22 (T)              -0.10838927 [mEh]      -0.06801529 [kcal/mol]      -0.28457598 [kJ/mol]
      Exch-Disp20                   0.01307068 [mEh]       0.00820197 [kcal/mol]       0.03431706 [kJ/mol]

  Total HF                         -1.31682917 [mEh]      -0.82632278 [kcal/mol]      -3.45733452 [kJ/mol]
  Total SAPT0                      -1.95277782 [mEh]      -1.22538658 [kcal/mol]      -5.12701745 [kJ/mol]
  Total SAPT2                      -1.93434814 [mEh]      -1.21382179 [kcal/mol]      -5.07863035 [kJ/mol]
  Total SAPT2+                     -1.98088581 [mEh]      -1.24302461 [kcal/mol]      -5.20081498 [kJ/mol]

  Special recipe for scaled SAPT0 (see Manual):
    Electrostatics sSAPT0          -1.30698868 [mEh]      -0.82014778 [kcal/mol]      -3.43149831 [kJ/mol]
    Exchange sSAPT0                 0.08714291 [mEh]       0.05468300 [kcal/mol]       0.22879368 [kJ/mol]
    Induction sSAPT0               -0.09698114 [mEh]      -0.06085658 [kcal/mol]      -0.25462394 [kJ/mol]
    Dispersion sSAPT0              -0.63594615 [mEh]      -0.39906224 [kcal/mol]      -1.66967640 [kJ/mol]
  Total sSAPT0                     -1.95277306 [mEh]      -1.22538360 [kcal/mol]      -5.12700497 [kJ/mol]
  --------------------------------------------------------------------------------------------------------

*** Psi4 exiting successfully. Buy a developer a beer!
