                               Psi4 1.4a2.dev224

  ==> Input File <==

--------------------------------------------------------------------------
#Generated by lconvert.py for sapt job

memory 50 GB

molecule  {
0 1
  N      -0.569710    0.814370    0.101100
  H       0.130880    0.561410   -0.587610
  H      -1.461250    0.526920   -0.280430
  C      -0.305510    0.065710    1.328790
  H      -1.057150    0.314270    2.075960
  H      -0.288020   -1.022290    1.214850
  H       0.660460    0.368510    1.730240
--
0 1
  C       3.622980    2.592980   -0.336610
  H       3.747600    3.004150   -1.335650
  H       4.129550    3.233970    0.381180
  H       2.556570    2.566450   -0.118190
  C       4.134970    1.175180   -0.334310
  O       3.675000    0.309440   -1.073490
  N       5.121460    0.902150    0.558020
  H       5.521220    1.657080    1.083370
  C       5.709900   -0.417450    0.635520
  H       4.921730   -1.158780    0.542500
  H       6.431160   -0.589440   -0.163030
  H       6.204560   -0.533310    1.595460
units angstrom
no_reorient
symmetry c1
}

set {
scf_type DF
basis aug-cc-pvtz
freeze_core True
guess SAD
}
energy('sapt2+')
--------------------------------------------------------------------------

  //              Dimer HF             //
    Molecular point group: c1
  Charge       = 0
  Multiplicity = 1
  Basis Set: AUG-CC-PVTZ
    Blend: AUG-CC-PVTZ
  Basis Set: (AUG-CC-PVTZ AUX)
    Blend: AUG-CC-PVTZ-JKFIT
  @DF-RHF Final Energy:  -342.36034688916970
    Total Energy =                       -342.3603468891697048
  //            Monomer A HF           //
    Molecular point group: c1
  Multiplicity = 1
  Basis Set: AUG-CC-PVTZ
    Blend: AUG-CC-PVTZ
  Basis Set: (AUG-CC-PVTZ AUX)
    Blend: AUG-CC-PVTZ-JKFIT
  @DF-RHF Final Energy:   -95.25531946017800
    Total Energy =                        -95.2553194601780007
  //            Monomer B HF           //
    Molecular point group: c1

    Geometry (in Angstrom), charge = 0, multiplicity = 1:

       Center              X                  Y                   Z               Mass
    ------------   -----------------  -----------------  -----------------  -----------------
      Gh(N)          -3.569006524530     0.055621738552    -0.031151263444    14.003074004430
      Gh(H)          -2.868416524530    -0.197338261448    -0.719861263444     1.007825032230
      Gh(H)          -4.460546524530    -0.231828261448    -0.412681263444     1.007825032230
      Gh(C)          -3.304806524530    -0.693038261448     1.196538736556    12.000000000000
      Gh(H)          -4.056446524530    -0.444478261448     1.943708736556     1.007825032230
      Gh(H)          -3.287316524530    -1.781038261448     1.082598736556     1.007825032230
      Gh(H)          -2.338836524530    -0.390238261448     1.597988736556     1.007825032230
         C            0.623683475470     1.834231738552    -0.468861263444    12.000000000000
         H            0.748303475470     2.245401738552    -1.467901263444     1.007825032230
         H            1.130253475470     2.475221738552     0.248928736556     1.007825032230
         H           -0.442726524530     1.807701738552    -0.250441263444     1.007825032230
         C            1.135673475470     0.416431738552    -0.466561263444    12.000000000000
         O            0.675703475470    -0.449308261448    -1.205741263444    15.994914619570
         N            2.122163475470     0.143401738552     0.425768736556    14.003074004430
         H            2.521923475470     0.898331738552     0.951118736556     1.007825032230
         C            2.710603475470    -1.176198261448     0.503268736556    12.000000000000
         H            1.922433475470    -1.917528261448     0.410248736556     1.007825032230
         H            3.431863475470    -1.348188261448    -0.295281263444     1.007825032230
         H            3.205263475470    -1.292058261448     1.463208736556     1.007825032230

  Charge       = 0
  Multiplicity = 1
  Basis Set: AUG-CC-PVTZ
    Blend: AUG-CC-PVTZ
  Basis Set: (AUG-CC-PVTZ AUX)
    Blend: AUG-CC-PVTZ-JKFIT

    Orbital Energies [Eh]
    ---------------------

    Doubly Occupied:

       1A    -20.510077     2A    -15.586578     3A    -11.345746
       4A    -11.257308     5A    -11.235677     6A     -1.371967
       7A     -1.229526     8A     -1.019372     9A     -0.932828
      10A     -0.790194    11A     -0.689862    12A     -0.651669
      13A     -0.633921    14A     -0.585732    15A     -0.579288
      16A     -0.557146    17A     -0.547327    18A     -0.499723
      19A     -0.420426    20A     -0.391876

  @DF-RHF Final Energy:  -247.10303658394847

   => Energetics <=

    Nuclear Repulsion Energy =            180.7218581285696644
    One-Electron Energy =                -693.9773037182305870
    Two-Electron Energy =                 266.1524090057124567
    Total Energy =                       -247.1030365839484375

  Dipole Moment: [D]
     X:     2.1350      Y:     2.3626      Z:     2.7124     Total:     4.1830

    SAPT Results
  --------------------------------------------------------------------------------------------------------
    Electrostatics                 -1.72743228 [mEh]      -1.08398012 [kcal/mol]      -4.53537282 [kJ/mol]
      Elst10,r                     -1.97396094 [mEh]      -1.23867919 [kcal/mol]      -5.18263374 [kJ/mol]
      Elst12,r                      0.24652867 [mEh]       0.15469907 [kcal/mol]       0.64726092 [kJ/mol]

    Exchange                        0.18618606 [mEh]       0.11683351 [kcal/mol]       0.48883142 [kJ/mol]
      Exch10                        0.14966933 [mEh]       0.09391892 [kcal/mol]       0.39295677 [kJ/mol]
      Exch10(S^2)                   0.14965753 [mEh]       0.09391152 [kcal/mol]       0.39292580 [kJ/mol]
      Exch11(S^2)                  -0.00017971 [mEh]      -0.00011277 [kcal/mol]      -0.00047183 [kJ/mol]
      Exch12(S^2)                   0.03669644 [mEh]       0.02302736 [kcal/mol]       0.09634649 [kJ/mol]

    Induction                      -0.16180256 [mEh]      -0.10153264 [kcal/mol]      -0.42481257 [kJ/mol]
      Ind20,r                      -0.17013984 [mEh]      -0.10676436 [kcal/mol]      -0.44670209 [kJ/mol]
      Ind22                         0.00536309 [mEh]       0.00336539 [kcal/mol]       0.01408080 [kJ/mol]
      Exch-Ind20,r                  0.01942248 [mEh]       0.01218779 [kcal/mol]       0.05099371 [kJ/mol]
      Exch-Ind22                   -0.00061223 [mEh]      -0.00038418 [kcal/mol]      -0.00160741 [kJ/mol]
      delta HF,r (2)               -0.01583607 [mEh]      -0.00993728 [kcal/mol]      -0.04157759 [kJ/mol]

    Dispersion                     -1.18089521 [mEh]      -0.74102293 [kcal/mol]      -3.10043994 [kJ/mol]
      Disp20                       -1.13906186 [mEh]      -0.71477211 [kcal/mol]      -2.99060651 [kJ/mol]
      Disp21                        0.11900290 [mEh]       0.07467545 [kcal/mol]       0.31244208 [kJ/mol]
      Disp22 (SDQ)                  0.02484640 [mEh]       0.01559135 [kcal/mol]       0.06523420 [kJ/mol]
      Disp22 (T)                   -0.19650650 [mEh]      -0.12330969 [kcal/mol]      -0.51592773 [kJ/mol]
      Est. Disp22 (T)              -0.20883993 [mEh]      -0.13104903 [kcal/mol]      -0.54830915 [kJ/mol]
      Exch-Disp20                   0.02315728 [mEh]       0.01453142 [kcal/mol]       0.06079944 [kJ/mol]

  Total HF                         -1.99084504 [mEh]      -1.24927413 [kcal/mol]      -5.22696294 [kJ/mol]
  Total SAPT0                      -3.10674962 [mEh]      -1.94951482 [kcal/mol]      -8.15677001 [kJ/mol]
  Total SAPT2                      -2.81895336 [mEh]      -1.76891994 [kcal/mol]      -7.40116103 [kJ/mol]
  Total SAPT2+                     -2.88394399 [mEh]      -1.80970218 [kcal/mol]      -7.57179391 [kJ/mol]

  Special recipe for scaled SAPT0 (see Manual):
    Electrostatics sSAPT0          -1.97396094 [mEh]      -1.23867919 [kcal/mol]      -5.18263374 [kJ/mol]
    Exchange sSAPT0                 0.14966933 [mEh]       0.09391892 [kcal/mol]       0.39295677 [kJ/mol]
    Induction sSAPT0               -0.16654884 [mEh]      -0.10451097 [kcal/mol]      -0.43727391 [kJ/mol]
    Dispersion sSAPT0              -1.11589910 [mEh]      -0.70023726 [kcal/mol]      -2.92979269 [kJ/mol]
  Total sSAPT0                     -3.10673955 [mEh]      -1.94950850 [kcal/mol]      -8.15674358 [kJ/mol]
  --------------------------------------------------------------------------------------------------------

*** Psi4 exiting successfully. Buy a developer a beer!
