                               Psi4 1.4a2.dev224

  ==> Input File <==

--------------------------------------------------------------------------
#Generated by lconvert.py for sapt job

memory 50 GB

molecule  {
0 1
  N      -0.569710    0.814370    0.101100
  H       0.130880    0.561410   -0.587610
  H      -1.461250    0.526920   -0.280430
  C      -0.305510    0.065710    1.328790
  H      -1.057150    0.314270    2.075960
  H      -0.288020   -1.022290    1.214850
  H       0.660460    0.368510    1.730240
--
0 1
  C       2.958480    2.640220   -0.245510
  H       3.083100    3.051400   -1.244550
  H       3.465050    3.281210    0.472280
  H       1.892070    2.613690   -0.027090
  C       3.470470    1.222420   -0.243220
  O       3.010490    0.356690   -0.982390
  N       4.456950    0.949390    0.649110
  H       4.856720    1.704320    1.174470
  C       5.045400   -0.370200    0.726610
  H       4.257220   -1.111530    0.633590
  H       5.766660   -0.542200   -0.071930
  H       5.540050   -0.486070    1.686550
units angstrom
no_reorient
symmetry c1
}

set {
scf_type DF
basis aug-cc-pvtz
freeze_core True
guess SAD
}
energy('sapt2+')
--------------------------------------------------------------------------

  //              Dimer HF             //
    Molecular point group: c1
  Charge       = 0
  Multiplicity = 1
  Basis Set: AUG-CC-PVTZ
    Blend: AUG-CC-PVTZ
  Basis Set: (AUG-CC-PVTZ AUX)
    Blend: AUG-CC-PVTZ-JKFIT
  @DF-RHF Final Energy:  -342.36165208986216
    Total Energy =                       -342.3616520898621616
  //            Monomer A HF           //
    Molecular point group: c1
  Multiplicity = 1
  Basis Set: AUG-CC-PVTZ
    Blend: AUG-CC-PVTZ
  Basis Set: (AUG-CC-PVTZ AUX)
    Blend: AUG-CC-PVTZ-JKFIT
  @DF-RHF Final Energy:   -95.25533357520649
    Total Energy =                        -95.2553335752064925
  //            Monomer B HF           //
    Molecular point group: c1

    Geometry (in Angstrom), charge = 0, multiplicity = 1:

       Center              X                  Y                   Z               Mass
    ------------   -----------------  -----------------  -----------------  -----------------
      Gh(N)          -3.102664251010     0.022466314217    -0.095080452780    14.003074004430
      Gh(H)          -2.402074251010    -0.230493685783    -0.783790452780     1.007825032230
      Gh(H)          -3.994204251010    -0.264983685783    -0.476610452780     1.007825032230
      Gh(C)          -2.838464251010    -0.726193685783     1.132609547220    12.000000000000
      Gh(H)          -3.590104251010    -0.477633685783     1.879779547220     1.007825032230
      Gh(H)          -2.820974251010    -1.814193685783     1.018669547220     1.007825032230
      Gh(H)          -1.872494251010    -0.423393685783     1.534059547220     1.007825032230
         C            0.425525748990     1.848316314217    -0.441690452780    12.000000000000
         H            0.550145748990     2.259496314217    -1.440730452780     1.007825032230
         H            0.932095748990     2.489306314217     0.276099547220     1.007825032230
         H           -0.640884251010     1.821786314217    -0.223270452780     1.007825032230
         C            0.937515748990     0.430516314217    -0.439400452780    12.000000000000
         O            0.477535748990    -0.435213685783    -1.178570452780    15.994914619570
         N            1.923995748990     0.157486314217     0.452929547220    14.003074004430
         H            2.323765748990     0.912416314217     0.978289547220     1.007825032230
         C            2.512445748990    -1.162103685783     0.530429547220    12.000000000000
         H            1.724265748990    -1.903433685783     0.437409547220     1.007825032230
         H            3.233705748990    -1.334103685783    -0.268110452780     1.007825032230
         H            3.007095748990    -1.277973685783     1.490369547220     1.007825032230

  Charge       = 0
  Multiplicity = 1
  Basis Set: AUG-CC-PVTZ
    Blend: AUG-CC-PVTZ
  Basis Set: (AUG-CC-PVTZ AUX)
    Blend: AUG-CC-PVTZ-JKFIT

    Orbital Energies [Eh]
    ---------------------

    Doubly Occupied:

       1A    -20.510050     2A    -15.586572     3A    -11.345734
       4A    -11.257306     5A    -11.235677     6A     -1.371961
       7A     -1.229522     8A     -1.019367     9A     -0.932825
      10A     -0.790188    11A     -0.689858    12A     -0.651664
      13A     -0.633922    14A     -0.585729    15A     -0.579282
      16A     -0.557139    17A     -0.547324    18A     -0.499724
      19A     -0.420414    20A     -0.391876

  @DF-RHF Final Energy:  -247.10307278475784

   => Energetics <=

    Nuclear Repulsion Energy =            180.7223228705481688
    One-Electron Energy =                -693.9785229610014312
    Two-Electron Energy =                 266.1531273056954205
    Total Energy =                       -247.1030727847578419

  Dipole Moment: [D]
     X:     2.1350      Y:     2.3622      Z:     2.7120     Total:     4.1825

    SAPT Results
  --------------------------------------------------------------------------------------------------------
    Electrostatics                 -3.61433560 [mEh]      -2.26802983 [kcal/mol]      -9.48943680 [kJ/mol]
      Elst10,r                     -3.94888355 [mEh]      -2.47796184 [kcal/mol]     -10.36779232 [kJ/mol]
      Elst12,r                      0.33454795 [mEh]       0.20993201 [kcal/mol]       0.87835552 [kJ/mol]

    Exchange                        1.53358207 [mEh]       0.96233728 [kcal/mol]       4.02641917 [kJ/mol]
      Exch10                        1.28814587 [mEh]       0.80832374 [kcal/mol]       3.38202651 [kJ/mol]
      Exch10(S^2)                   1.28755345 [mEh]       0.80795199 [kcal/mol]       3.38047111 [kJ/mol]
      Exch11(S^2)                   0.00942272 [mEh]       0.00591284 [kcal/mol]       0.02473934 [kJ/mol]
      Exch12(S^2)                   0.23601349 [mEh]       0.14810070 [kcal/mol]       0.61965333 [kJ/mol]

    Induction                      -0.60457771 [mEh]      -0.37937824 [kcal/mol]      -1.58731856 [kJ/mol]
      Ind20,r                      -0.66967609 [mEh]      -0.42022809 [kcal/mol]      -1.75823432 [kJ/mol]
      Ind22                        -0.02843908 [mEh]      -0.01784579 [kcal/mol]      -0.07466680 [kJ/mol]
      Exch-Ind20,r                  0.20848212 [mEh]       0.13082451 [kcal/mol]       0.54736973 [kJ/mol]
      Exch-Ind22                    0.00885359 [mEh]       0.00555571 [kcal/mol]       0.02324511 [kJ/mol]
      delta HF,r (2)               -0.12379826 [mEh]      -0.07768458 [kcal/mol]      -0.32503227 [kJ/mol]

    Dispersion                     -2.96248930 [mEh]      -1.85899010 [kcal/mol]      -7.77801460 [kJ/mol]
      Disp20                       -2.91161323 [mEh]      -1.82706489 [kcal/mol]      -7.64443949 [kJ/mol]
      Disp21                        0.26328257 [mEh]       0.16521231 [kcal/mol]       0.69124829 [kJ/mol]
      Disp22 (SDQ)                  0.05064405 [mEh]       0.03177962 [kcal/mol]       0.13296594 [kJ/mol]
      Disp22 (T)                   -0.48466462 [mEh]      -0.30413164 [kcal/mol]      -1.27248679 [kJ/mol]
      Est. Disp22 (T)              -0.52881247 [mEh]      -0.33183484 [kcal/mol]      -1.38839695 [kJ/mol]
      Exch-Disp20                   0.16400978 [mEh]       0.10291769 [kcal/mol]       0.43060761 [kJ/mol]

  Total HF                         -3.24572990 [mEh]      -2.03672626 [kcal/mol]      -8.52166267 [kJ/mol]
  Total SAPT0                      -5.99333336 [mEh]      -3.76087346 [kcal/mol]     -15.73549456 [kJ/mol]
  Total SAPT2                      -5.43293469 [mEh]      -3.40921799 [kcal/mol]     -14.26416806 [kJ/mol]
  Total SAPT2+                     -5.64782054 [mEh]      -3.54406089 [kcal/mol]     -14.82835078 [kJ/mol]

  Special recipe for scaled SAPT0 (see Manual):
    Electrostatics sSAPT0          -3.94888355 [mEh]      -2.47796184 [kcal/mol]     -10.36779232 [kJ/mol]
    Exchange sSAPT0                 1.28814587 [mEh]       0.80832374 [kcal/mol]       3.38202651 [kJ/mol]
    Induction sSAPT0               -0.58470431 [mEh]      -0.36690749 [kcal/mol]      -1.53514096 [kJ/mol]
    Dispersion sSAPT0              -2.74737696 [mEh]      -1.72400507 [kcal/mol]      -7.21323722 [kJ/mol]
  Total sSAPT0                     -5.99281895 [mEh]      -3.76055067 [kcal/mol]     -15.73414399 [kJ/mol]
  --------------------------------------------------------------------------------------------------------

*** Psi4 exiting successfully. Buy a developer a beer!
