                               Psi4 1.4a2.dev224

  ==> Input File <==

--------------------------------------------------------------------------
#Generated by lconvert.py for sapt job

memory 50 GB

molecule  {
0 1
  N      -0.569710    0.814370    0.101100
  H       0.130880    0.561410   -0.587610
  H      -1.461250    0.526920   -0.280430
  C      -0.305510    0.065710    1.328790
  H      -1.057150    0.314270    2.075960
  H      -0.288020   -1.022290    1.214850
  H       0.660460    0.368510    1.730240
--
0 1
  C       4.287490    2.545730   -0.427710
  H       4.412110    2.956910   -1.426750
  H       4.794060    3.186720    0.290080
  H       3.221070    2.519200   -0.209280
  C       4.799480    1.127930   -0.425410
  O       4.339500    0.262200   -1.164590
  N       5.785960    0.854900    0.466920
  H       6.185720    1.609830    0.992270
  C       6.374410   -0.464690    0.544420
  H       5.586230   -1.206020    0.451400
  H       7.095670   -0.636680   -0.254130
  H       6.869060   -0.580560    1.504360
units angstrom
no_reorient
symmetry c1
}

set {
scf_type DF
basis aug-cc-pvtz
freeze_core True
guess SAD
}
energy('sapt2+')
--------------------------------------------------------------------------

  //              Dimer HF             //
    Molecular point group: c1
  Charge       = 0
  Multiplicity = 1
  Basis Set: AUG-CC-PVTZ
    Blend: AUG-CC-PVTZ
  Basis Set: (AUG-CC-PVTZ AUX)
    Blend: AUG-CC-PVTZ-JKFIT
  @DF-RHF Final Energy:  -342.35953095349407
    Total Energy =                       -342.3595309534940725
  //            Monomer A HF           //
    Molecular point group: c1
  Multiplicity = 1
  Basis Set: AUG-CC-PVTZ
    Blend: AUG-CC-PVTZ
  Basis Set: (AUG-CC-PVTZ AUX)
    Blend: AUG-CC-PVTZ-JKFIT
  @DF-RHF Final Energy:   -95.25531248344309
    Total Energy =                        -95.2553124834430918
  //            Monomer B HF           //
    Molecular point group: c1

    Geometry (in Angstrom), charge = 0, multiplicity = 1:

       Center              X                  Y                   Z               Mass
    ------------   -----------------  -----------------  -----------------  -----------------
      Gh(N)          -4.035349471457     0.088778317968     0.032781673517    14.003074004430
      Gh(H)          -3.334759471457    -0.164181682032    -0.655928326483     1.007825032230
      Gh(H)          -4.926889471457    -0.198671682032    -0.348748326483     1.007825032230
      Gh(C)          -3.771149471457    -0.659881682032     1.260471673517    12.000000000000
      Gh(H)          -4.522789471457    -0.411321682032     2.007641673517     1.007825032230
      Gh(H)          -3.753659471457    -1.747881682032     1.146531673517     1.007825032230
      Gh(H)          -2.805179471457    -0.357081682032     1.661921673517     1.007825032230
         C            0.821850528543     1.820138317968    -0.496028326483    12.000000000000
         H            0.946470528543     2.231318317968    -1.495068326483     1.007825032230
         H            1.328420528543     2.461128317968     0.221761673517     1.007825032230
         H           -0.244569471457     1.793608317968    -0.277598326483     1.007825032230
         C            1.333840528543     0.402338317968    -0.493728326483    12.000000000000
         O            0.873860528543    -0.463391682032    -1.232908326483    15.994914619570
         N            2.320320528543     0.129308317968     0.398601673517    14.003074004430
         H            2.720080528543     0.884238317968     0.923951673517     1.007825032230
         C            2.908770528543    -1.190281682032     0.476101673517    12.000000000000
         H            2.120590528543    -1.931611682032     0.383081673517     1.007825032230
         H            3.630030528543    -1.362271682032    -0.322448326483     1.007825032230
         H            3.403420528543    -1.306151682032     1.436041673517     1.007825032230

  Charge       = 0
  Multiplicity = 1
  Basis Set: AUG-CC-PVTZ
    Blend: AUG-CC-PVTZ
  Basis Set: (AUG-CC-PVTZ AUX)
    Blend: AUG-CC-PVTZ-JKFIT

    Orbital Energies [Eh]
    ---------------------

    Doubly Occupied:

       1A    -20.510090     2A    -15.586583     3A    -11.345749
       4A    -11.257309     5A    -11.235678     6A     -1.371976
       7A     -1.229534     8A     -1.019373     9A     -0.932829
      10A     -0.790198    11A     -0.689865    12A     -0.651672
      13A     -0.633924    14A     -0.585732    15A     -0.579292
      16A     -0.557145    17A     -0.547328    18A     -0.499725
      19A     -0.420432    20A     -0.391877

  @DF-RHF Final Energy:  -247.10302044081021

   => Energetics <=

    Nuclear Repulsion Energy =            180.7221227010564917
    One-Electron Energy =                -693.9776583948970483
    Two-Electron Energy =                 266.1525152530303444
    Total Energy =                       -247.1030204408102122

  Dipole Moment: [D]
     X:     2.1352      Y:     2.3629      Z:     2.7130     Total:     4.1836

    SAPT Results
  --------------------------------------------------------------------------------------------------------
    Electrostatics                 -0.98660345 [mEh]      -0.61910301 [kcal/mol]      -2.59032700 [kJ/mol]
      Elst10,r                     -1.15330837 [mEh]      -0.72371193 [kcal/mol]      -3.02801071 [kJ/mol]
      Elst12,r                      0.16670492 [mEh]       0.10460892 [kcal/mol]       0.43768370 [kJ/mol]

    Exchange                        0.02137687 [mEh]       0.01341419 [kcal/mol]       0.05612495 [kJ/mol]
      Exch10                        0.01649875 [mEh]       0.01035312 [kcal/mol]       0.04331745 [kJ/mol]
      Exch10(S^2)                   0.01649854 [mEh]       0.01035299 [kcal/mol]       0.04331690 [kJ/mol]
      Exch11(S^2)                  -0.00016801 [mEh]      -0.00010543 [kcal/mol]      -0.00044111 [kJ/mol]
      Exch12(S^2)                   0.00504613 [mEh]       0.00316649 [kcal/mol]       0.01324861 [kJ/mol]

    Induction                      -0.05654909 [mEh]      -0.03548509 [kcal/mol]      -0.14846961 [kJ/mol]
      Ind20,r                      -0.06044997 [mEh]      -0.03793293 [kcal/mol]      -0.15871137 [kJ/mol]
      Ind22                         0.00481774 [mEh]       0.00302318 [kcal/mol]       0.01264898 [kJ/mol]
      Exch-Ind20,r                  0.00184710 [mEh]       0.00115907 [kcal/mol]       0.00484957 [kJ/mol]
      Exch-Ind22                   -0.00014721 [mEh]      -0.00009238 [kcal/mol]      -0.00038650 [kJ/mol]
      delta HF,r (2)               -0.00261675 [mEh]      -0.00164204 [kcal/mol]      -0.00687029 [kJ/mol]

    Dispersion                     -0.52066668 [mEh]      -0.32672327 [kcal/mol]      -1.36701017 [kJ/mol]
      Disp20                       -0.50396620 [mEh]      -0.31624356 [kcal/mol]      -1.32316308 [kJ/mol]
      Disp21                        0.05965658 [mEh]       0.03743507 [kcal/mol]       0.15662832 [kJ/mol]
      Disp22 (SDQ)                  0.01315087 [mEh]       0.00825230 [kcal/mol]       0.03452761 [kJ/mol]
      Disp22 (T)                   -0.08889439 [mEh]      -0.05578207 [kcal/mol]      -0.23339219 [kJ/mol]
      Est. Disp22 (T)              -0.09257059 [mEh]      -0.05808892 [kcal/mol]      -0.24304405 [kJ/mol]
      Exch-Disp20                   0.00306266 [mEh]       0.00192185 [kcal/mol]       0.00804102 [kJ/mol]

  Total HF                         -1.19802924 [mEh]      -0.75177470 [kcal/mol]      -3.14542534 [kJ/mol]
  Total SAPT0                      -1.69893278 [mEh]      -1.06609641 [kcal/mol]      -4.46054739 [kJ/mol]
  Total SAPT2                      -1.52267921 [mEh]      -0.95549563 [kcal/mol]      -3.99779371 [kJ/mol]
  Total SAPT2+                     -1.54244235 [mEh]      -0.96789719 [kcal/mol]      -4.04968183 [kJ/mol]

  Special recipe for scaled SAPT0 (see Manual):
    Electrostatics sSAPT0          -1.15330837 [mEh]      -0.72371193 [kcal/mol]      -3.02801071 [kJ/mol]
    Exchange sSAPT0                 0.01649875 [mEh]       0.01035312 [kcal/mol]       0.04331745 [kJ/mol]
    Induction sSAPT0               -0.06121955 [mEh]      -0.03841585 [kcal/mol]      -0.16073190 [kJ/mol]
    Dispersion sSAPT0              -0.50090342 [mEh]      -0.31432164 [kcal/mol]      -1.31512174 [kJ/mol]
  Total sSAPT0                     -1.69893259 [mEh]      -1.06609629 [kcal/mol]      -4.46054689 [kJ/mol]
  --------------------------------------------------------------------------------------------------------

*** Psi4 exiting successfully. Buy a developer a beer!
