                               Psi4 1.4a2.dev224

  ==> Input File <==

--------------------------------------------------------------------------
#Generated by lconvert.py for sapt job

memory 50 GB

molecule  {
0 1
  N      -0.533460   -0.279590    0.107000
  H      -0.629150   -1.248420    0.382850
  H      -1.122600   -0.166160   -0.707760
  C      -1.016910    0.588490    1.187370
  H      -0.912760    1.625550    0.879520
  H      -2.054740    0.415080    1.478500
  H      -0.385020    0.448800    2.060610
--
0 1
  O       2.682490    1.145490    0.189930
  H       1.864980    0.649220    0.016780
  H       3.264390    0.886990   -0.525810
units angstrom
no_reorient
symmetry c1
}

set {
scf_type DF
basis aug-cc-pvtz
freeze_core True
guess SAD
}
energy('sapt2+')
--------------------------------------------------------------------------

  //              Dimer HF             //
    Molecular point group: c1
  Charge       = 0
  Multiplicity = 1
  Basis Set: AUG-CC-PVTZ
    Blend: AUG-CC-PVTZ
  Basis Set: (AUG-CC-PVTZ AUX)
    Blend: AUG-CC-PVTZ-JKFIT
  @DF-RHF Final Energy:  -171.32141353677582
    Total Energy =                       -171.3214135367758217
  //            Monomer A HF           //
    Molecular point group: c1
  Multiplicity = 1
  Basis Set: AUG-CC-PVTZ
    Blend: AUG-CC-PVTZ
  Basis Set: (AUG-CC-PVTZ AUX)
    Blend: AUG-CC-PVTZ-JKFIT
  @DF-RHF Final Energy:   -95.25547535902381
    Total Energy =                        -95.2554753590238050
  //            Monomer B HF           //
    Molecular point group: c1

    Geometry (in Angstrom), charge = 0, multiplicity = 1:

       Center              X                  Y                   Z               Mass
    ------------   -----------------  -----------------  -----------------  -----------------
      Gh(N)          -1.007612590852    -0.770903129454    -0.349598601368    14.003074004430
      Gh(H)          -1.103302590852    -1.739733129454    -0.073748601368     1.007825032230
      Gh(H)          -1.596752590852    -0.657473129454    -1.164358601368     1.007825032230
      Gh(C)          -1.491062590852     0.097176870546     0.730771398632    12.000000000000
      Gh(H)          -1.386912590852     1.134236870546     0.422921398632     1.007825032230
      Gh(H)          -2.528892590852    -0.076233129454     1.021901398632     1.007825032230
      Gh(H)          -0.859172590852    -0.042513129454     1.604011398632     1.007825032230
         O            2.208337409148     0.654176870546    -0.266668601368    15.994914619570
         H            1.390827409148     0.157906870546    -0.439818601368     1.007825032230
         H            2.790237409148     0.395676870546    -0.982408601368     1.007825032230

  Charge       = 0
  Multiplicity = 1
  Basis Set: AUG-CC-PVTZ
    Blend: AUG-CC-PVTZ
  Basis Set: (AUG-CC-PVTZ AUX)
    Blend: AUG-CC-PVTZ-JKFIT

    Orbital Energies [Eh]
    ---------------------

    Doubly Occupied:

       1A    -20.568822     2A     -1.350130     3A     -0.712441
       4A     -0.584649     5A     -0.509912

  @DF-RHF Final Energy:   -76.05989170961057

   => Energetics <=

    Nuclear Repulsion Energy =              9.1231856304356125
    One-Electron Energy =                -122.9142442378629880
    Two-Electron Energy =                  37.7311668978168058
    Total Energy =                        -76.0598917096105680

  Dipole Moment: [D]
     X:    -0.3905      Y:    -1.2680      Z:    -1.4965     Total:     1.9999

    SAPT Results
  --------------------------------------------------------------------------------------------------------
    Electrostatics                 -7.11558208 [mEh]      -4.46509517 [kcal/mol]     -18.68195817 [kJ/mol]
      Elst10,r                     -7.15409258 [mEh]      -4.48926087 [kcal/mol]     -18.78306747 [kJ/mol]
      Elst12,r                      0.03851050 [mEh]       0.02416570 [kcal/mol]       0.10110930 [kJ/mol]

    Exchange                        2.77247842 [mEh]       1.73975648 [kcal/mol]       7.27914109 [kJ/mol]
      Exch10                        2.33915171 [mEh]       1.46783986 [kcal/mol]       6.14144196 [kJ/mol]
      Exch10(S^2)                   2.33452526 [mEh]       1.46493671 [kcal/mol]       6.12929521 [kJ/mol]
      Exch11(S^2)                   0.05328934 [mEh]       0.03343957 [kcal/mol]       0.13991115 [kJ/mol]
      Exch12(S^2)                   0.38003737 [mEh]       0.23847705 [kcal/mol]       0.99778798 [kJ/mol]

    Induction                      -1.33344154 [mEh]      -0.83674720 [kcal/mol]      -3.50095027 [kJ/mol]
      Ind20,r                      -1.48567872 [mEh]      -0.93227747 [kcal/mol]      -3.90064894 [kJ/mol]
      Ind22                        -0.17214417 [mEh]      -0.10802210 [kcal/mol]      -0.45196446 [kJ/mol]
      Exch-Ind20,r                  0.60611449 [mEh]       0.38034259 [kcal/mol]       1.59135338 [kJ/mol]
      Exch-Ind22                    0.07022991 [mEh]       0.04406993 [kcal/mol]       0.18438859 [kJ/mol]
      delta HF,r (2)               -0.35196305 [mEh]      -0.22086015 [kcal/mol]      -0.92407885 [kJ/mol]

    Dispersion                     -2.09328177 [mEh]      -1.31355414 [kcal/mol]      -5.49591052 [kJ/mol]
      Disp20                       -2.00340331 [mEh]      -1.25715456 [kcal/mol]      -5.25993468 [kJ/mol]
      Disp21                        0.05006155 [mEh]       0.03141409 [kcal/mol]       0.13143657 [kJ/mol]
      Disp22 (SDQ)                  0.00087934 [mEh]       0.00055179 [kcal/mol]       0.00230870 [kJ/mol]
      Disp22 (T)                   -0.30892187 [mEh]      -0.19385140 [kcal/mol]      -0.81107427 [kJ/mol]
      Est. Disp22 (T)              -0.35354742 [mEh]      -0.22185435 [kcal/mol]      -0.92823862 [kJ/mol]
      Exch-Disp20                   0.21272808 [mEh]       0.13348889 [kcal/mol]       0.55851751 [kJ/mol]

  Total HF                         -6.04646814 [mEh]      -3.79421604 [kcal/mol]     -15.87499992 [kJ/mol]
  Total SAPT0                      -7.83714337 [mEh]      -4.91788171 [kcal/mol]     -20.57641709 [kJ/mol]
  Total SAPT2                      -7.46722042 [mEh]      -4.68575156 [kcal/mol]     -19.60518452 [kJ/mol]
  Total SAPT2+                     -7.76982696 [mEh]      -4.87564003 [kcal/mol]     -20.39967787 [kJ/mol]

  Special recipe for scaled SAPT0 (see Manual):
    Electrostatics sSAPT0          -7.15409258 [mEh]      -4.48926087 [kcal/mol]     -18.78306747 [kJ/mol]
    Exchange sSAPT0                 2.33915171 [mEh]       1.46783986 [kcal/mol]       6.14144196 [kJ/mol]
    Induction sSAPT0               -1.22791662 [mEh]      -0.77052931 [kcal/mol]      -3.22389464 [kJ/mol]
    Dispersion sSAPT0              -1.78940800 [mEh]      -1.12287047 [kcal/mol]      -4.69809005 [kJ/mol]
  Total sSAPT0                     -7.83226549 [mEh]      -4.91482079 [kcal/mol]     -20.56361020 [kJ/mol]
  --------------------------------------------------------------------------------------------------------

*** Psi4 exiting successfully. Buy a developer a beer!
