                               Psi4 1.4a2.dev224

  ==> Input File <==

--------------------------------------------------------------------------
#Generated by lconvert.py for sapt job

memory 50 GB

molecule  {
0 1
  N      -0.533460   -0.279590    0.107000
  H      -0.629150   -1.248420    0.382850
  H      -1.122600   -0.166160   -0.707760
  C      -1.016910    0.588490    1.187370
  H      -0.912760    1.625550    0.879520
  H      -2.054740    0.415080    1.478500
  H      -0.385020    0.448800    2.060610
--
0 1
  O       3.789420    1.574160    0.148290
  H       2.971910    1.077880   -0.024860
  H       4.371320    1.315660   -0.567450
units angstrom
no_reorient
symmetry c1
}

set {
scf_type DF
basis aug-cc-pvtz
freeze_core True
guess SAD
}
energy('sapt2+')
--------------------------------------------------------------------------

  //              Dimer HF             //
    Molecular point group: c1
  Charge       = 0
  Multiplicity = 1
  Basis Set: AUG-CC-PVTZ
    Blend: AUG-CC-PVTZ
  Basis Set: (AUG-CC-PVTZ AUX)
    Blend: AUG-CC-PVTZ-JKFIT
  @DF-RHF Final Energy:  -171.31741456457257
    Total Energy =                       -171.3174145645725730
  //            Monomer A HF           //
    Molecular point group: c1
  Multiplicity = 1
  Basis Set: AUG-CC-PVTZ
    Blend: AUG-CC-PVTZ
  Basis Set: (AUG-CC-PVTZ AUX)
    Blend: AUG-CC-PVTZ-JKFIT
  @DF-RHF Final Energy:   -95.25545581586924
    Total Energy =                        -95.2554558158692402
  //            Monomer B HF           //
    Molecular point group: c1

    Geometry (in Angstrom), charge = 0, multiplicity = 1:

       Center              X                  Y                   Z               Mass
    ------------   -----------------  -----------------  -----------------  -----------------
      Gh(N)          -1.414040950869    -0.928296476515    -0.334309760239    14.003074004430
      Gh(H)          -1.509730950869    -1.897126476515    -0.058459760239     1.007825032230
      Gh(H)          -2.003180950869    -0.814866476515    -1.149069760239     1.007825032230
      Gh(C)          -1.897490950869    -0.060216476515     0.746060239761    12.000000000000
      Gh(H)          -1.793340950869     0.976843523485     0.438210239761     1.007825032230
      Gh(H)          -2.935320950869    -0.233626476515     1.037190239761     1.007825032230
      Gh(H)          -1.265600950869    -0.199906476515     1.619300239761     1.007825032230
         O            2.908839049131     0.925453523485    -0.293019760239    15.994914619570
         H            2.091329049131     0.429173523485    -0.466169760239     1.007825032230
         H            3.490739049131     0.666953523485    -1.008759760239     1.007825032230

  Charge       = 0
  Multiplicity = 1
  Basis Set: AUG-CC-PVTZ
    Blend: AUG-CC-PVTZ
  Basis Set: (AUG-CC-PVTZ AUX)
    Blend: AUG-CC-PVTZ-JKFIT

    Orbital Energies [Eh]
    ---------------------

    Doubly Occupied:

       1A    -20.568839     2A     -1.350155     3A     -0.712462
       4A     -0.584675     5A     -0.509920

  @DF-RHF Final Energy:   -76.05986615597450

   => Energetics <=

    Nuclear Repulsion Energy =              9.1231623870998959
    One-Electron Energy =                -122.9139494488816098
    Two-Electron Energy =                  37.7309209058072099
    Total Energy =                        -76.0598661559745040

  Dipole Moment: [D]
     X:    -0.3903      Y:    -1.2678      Z:    -1.4965     Total:     1.9997

    SAPT Results
  --------------------------------------------------------------------------------------------------------
    Electrostatics                 -1.96866805 [mEh]      -1.23535785 [kcal/mol]      -5.16873726 [kJ/mol]
      Elst10,r                     -2.03075614 [mEh]      -1.27431872 [kcal/mol]      -5.33174950 [kJ/mol]
      Elst12,r                      0.06208809 [mEh]       0.03896086 [kcal/mol]       0.16301225 [kJ/mol]

    Exchange                        0.05609537 [mEh]       0.03520038 [kcal/mol]       0.14727837 [kJ/mol]
      Exch10                        0.04198340 [mEh]       0.02634498 [kcal/mol]       0.11022739 [kJ/mol]
      Exch10(S^2)                   0.04198117 [mEh]       0.02634358 [kcal/mol]       0.11022154 [kJ/mol]
      Exch11(S^2)                   0.00076198 [mEh]       0.00047815 [kcal/mol]       0.00200057 [kJ/mol]
      Exch12(S^2)                   0.01335000 [mEh]       0.00837725 [kcal/mol]       0.03505041 [kJ/mol]

    Induction                      -0.11052850 [mEh]      -0.06935768 [kcal/mol]      -0.29019252 [kJ/mol]
      Ind20,r                      -0.10523715 [mEh]      -0.06603731 [kcal/mol]      -0.27630009 [kJ/mol]
      Ind22                        -0.00740623 [mEh]      -0.00464748 [kcal/mol]      -0.01944507 [kJ/mol]
      Exch-Ind20,r                  0.00991418 [mEh]       0.00622124 [kcal/mol]       0.02602968 [kJ/mol]
      Exch-Ind22                    0.00069773 [mEh]       0.00043783 [kcal/mol]       0.00183188 [kJ/mol]
      delta HF,r (2)               -0.00849702 [mEh]      -0.00533196 [kcal/mol]      -0.02230893 [kJ/mol]

    Dispersion                     -0.30796899 [mEh]      -0.19325346 [kcal/mol]      -0.80857248 [kJ/mol]
      Disp20                       -0.27628474 [mEh]      -0.17337129 [kcal/mol]      -0.72538549 [kJ/mol]
      Disp21                        0.01305031 [mEh]       0.00818919 [kcal/mol]       0.03426359 [kJ/mol]
      Disp22 (SDQ)                  0.00099673 [mEh]       0.00062546 [kcal/mol]       0.00261691 [kJ/mol]
      Disp22 (T)                   -0.04685109 [mEh]      -0.02939951 [kcal/mol]      -0.12300753 [kJ/mol]
      Est. Disp22 (T)              -0.05085333 [mEh]      -0.03191094 [kcal/mol]      -0.13351539 [kJ/mol]
      Exch-Disp20                   0.00512203 [mEh]       0.00321412 [kcal/mol]       0.01344790 [kJ/mol]

  Total HF                         -2.09259273 [mEh]      -1.31312176 [kcal/mol]      -5.49410145 [kJ/mol]
  Total SAPT0                      -2.36375544 [mEh]      -1.48327893 [kcal/mol]      -6.20603905 [kJ/mol]
  Total SAPT2                      -2.29426389 [mEh]      -1.43967232 [kcal/mol]      -6.02358900 [kJ/mol]
  Total SAPT2+                     -2.33107017 [mEh]      -1.46276862 [kcal/mol]      -6.12022389 [kJ/mol]

  Special recipe for scaled SAPT0 (see Manual):
    Electrostatics sSAPT0          -2.03075614 [mEh]      -1.27431872 [kcal/mol]      -5.33174950 [kJ/mol]
    Exchange sSAPT0                 0.04198340 [mEh]       0.02634498 [kcal/mol]       0.11022739 [kJ/mol]
    Induction sSAPT0               -0.10381841 [mEh]      -0.06514703 [kcal/mol]      -0.27257519 [kJ/mol]
    Dispersion sSAPT0              -0.27116189 [mEh]      -0.17015666 [kcal/mol]      -0.71193545 [kJ/mol]
  Total sSAPT0                     -2.36375304 [mEh]      -1.48327743 [kcal/mol]      -6.20603276 [kJ/mol]
  --------------------------------------------------------------------------------------------------------

*** Psi4 exiting successfully. Buy a developer a beer!
