                               Psi4 1.4a2.dev224

  ==> Input File <==

--------------------------------------------------------------------------
#Generated by lconvert.py for sapt job

memory 50 GB

molecule  {
0 1
  N      -0.533460   -0.279590    0.107000
  H      -0.629150   -1.248420    0.382850
  H      -1.122600   -0.166160   -0.707760
  C      -1.016910    0.588490    1.187370
  H      -0.912760    1.625550    0.879520
  H      -2.054740    0.415080    1.478500
  H      -0.385020    0.448800    2.060610
--
0 1
  O       3.235960    1.359830    0.169110
  H       2.418440    0.863550   -0.004040
  H       3.817860    1.101330   -0.546630
units angstrom
no_reorient
symmetry c1
}

set {
scf_type DF
basis aug-cc-pvtz
freeze_core True
guess SAD
}
energy('sapt2+')
--------------------------------------------------------------------------

  //              Dimer HF             //
    Molecular point group: c1
  Charge       = 0
  Multiplicity = 1
  Basis Set: AUG-CC-PVTZ
    Blend: AUG-CC-PVTZ
  Basis Set: (AUG-CC-PVTZ AUX)
    Blend: AUG-CC-PVTZ-JKFIT
  @DF-RHF Final Energy:  -171.31889058227785
    Total Energy =                       -171.3188905822778452
  //            Monomer A HF           //
    Molecular point group: c1
  Multiplicity = 1
  Basis Set: AUG-CC-PVTZ
    Blend: AUG-CC-PVTZ
  Basis Set: (AUG-CC-PVTZ AUX)
    Blend: AUG-CC-PVTZ-JKFIT
  @DF-RHF Final Energy:   -95.25546438539227
    Total Energy =                        -95.2554643853922727
  //            Monomer B HF           //
    Molecular point group: c1

    Geometry (in Angstrom), charge = 0, multiplicity = 1:

       Center              X                  Y                   Z               Mass
    ------------   -----------------  -----------------  -----------------  -----------------
      Gh(N)          -1.210828401239    -0.849601536092    -0.341954180803    14.003074004430
      Gh(H)          -1.306518401239    -1.818431536092    -0.066104180803     1.007825032230
      Gh(H)          -1.799968401239    -0.736171536092    -1.156714180803     1.007825032230
      Gh(C)          -1.694278401239     0.018478463908     0.738415819197    12.000000000000
      Gh(H)          -1.590128401239     1.055538463908     0.430565819197     1.007825032230
      Gh(H)          -2.732108401239    -0.154931536092     1.029545819197     1.007825032230
      Gh(H)          -1.062388401239    -0.121211536092     1.611655819197     1.007825032230
         O            2.558591598761     0.789818463908    -0.279844180803    15.994914619570
         H            1.741071598761     0.293538463908    -0.452994180803     1.007825032230
         H            3.140491598761     0.531318463908    -0.995584180803     1.007825032230

  Charge       = 0
  Multiplicity = 1
  Basis Set: AUG-CC-PVTZ
    Blend: AUG-CC-PVTZ
  Basis Set: (AUG-CC-PVTZ AUX)
    Blend: AUG-CC-PVTZ-JKFIT

    Orbital Energies [Eh]
    ---------------------

    Doubly Occupied:

       1A    -20.568838     2A     -1.350146     3A     -0.712453
       4A     -0.584666     5A     -0.509917

  @DF-RHF Final Energy:   -76.05987251721227

   => Energetics <=

    Nuclear Repulsion Energy =              9.1231225795146322
    One-Electron Energy =                -122.9139451575276070
    Two-Electron Energy =                  37.7309500608007085
    Total Energy =                        -76.0598725172122698

  Dipole Moment: [D]
     X:    -0.3904      Y:    -1.2679      Z:    -1.4966     Total:     1.9999

    SAPT Results
  --------------------------------------------------------------------------------------------------------
    Electrostatics                 -3.47391841 [mEh]      -2.17991672 [kcal/mol]      -9.12077154 [kJ/mol]
      Elst10,r                     -3.54901438 [mEh]      -2.22704015 [kcal/mol]      -9.31793597 [kJ/mol]
      Elst12,r                      0.07509597 [mEh]       0.04712343 [kcal/mol]       0.19716443 [kJ/mol]

    Exchange                        0.39625288 [mEh]       0.24865244 [kcal/mol]       1.04036180 [kJ/mol]
      Exch10                        0.31489003 [mEh]       0.19759648 [kcal/mol]       0.82674367 [kJ/mol]
      Exch10(S^2)                   0.31478652 [mEh]       0.19753152 [kcal/mol]       0.82647190 [kJ/mol]
      Exch11(S^2)                   0.00636578 [mEh]       0.00399459 [kcal/mol]       0.01671336 [kJ/mol]
      Exch12(S^2)                   0.07499707 [mEh]       0.04706137 [kcal/mol]       0.19690477 [kJ/mol]

    Induction                      -0.34611357 [mEh]      -0.21718954 [kcal/mol]      -0.90872104 [kJ/mol]
      Ind20,r                      -0.34318166 [mEh]      -0.21534974 [kcal/mol]      -0.90102332 [kJ/mol]
      Ind22                        -0.03407243 [mEh]      -0.02138077 [kcal/mol]      -0.08945715 [kJ/mol]
      Exch-Ind20,r                  0.07568384 [mEh]       0.04749233 [kcal/mol]       0.19870790 [kJ/mol]
      Exch-Ind22                    0.00751419 [mEh]       0.00471523 [kcal/mol]       0.01972850 [kJ/mol]
      delta HF,r (2)               -0.05205751 [mEh]      -0.03266658 [kcal/mol]      -0.13667698 [kJ/mol]

    Dispersion                     -0.76409526 [mEh]      -0.47947701 [kcal/mol]      -2.00613182 [kJ/mol]
      Disp20                       -0.69251470 [mEh]      -0.43455954 [kcal/mol]      -1.81819711 [kJ/mol]
      Disp21                        0.02176508 [mEh]       0.01365779 [kcal/mol]       0.05714421 [kJ/mol]
      Disp22 (SDQ)                 -0.00011124 [mEh]      -0.00006980 [kcal/mol]      -0.00029206 [kJ/mol]
      Disp22 (T)                   -0.11432529 [mEh]      -0.07174020 [kcal/mol]      -0.30016101 [kJ/mol]
      Est. Disp22 (T)              -0.12692307 [mEh]      -0.07964543 [kcal/mol]      -0.33323648 [kJ/mol]
      Exch-Disp20                   0.03368868 [mEh]       0.02113997 [kcal/mol]       0.08844961 [kJ/mol]

  Total HF                         -3.55367967 [mEh]      -2.22996766 [kcal/mol]      -9.33018470 [kJ/mol]
  Total SAPT0                      -4.21250570 [mEh]      -2.64338723 [kcal/mol]     -11.05993219 [kJ/mol]
  Total SAPT2                      -4.08260512 [mEh]      -2.56187339 [kcal/mol]     -10.71887827 [kJ/mol]
  Total SAPT2+                     -4.18787435 [mEh]      -2.62793083 [kcal/mol]     -10.99526260 [kJ/mol]

  Special recipe for scaled SAPT0 (see Manual):
    Electrostatics sSAPT0          -3.54901438 [mEh]      -2.22704015 [kcal/mol]      -9.31793597 [kJ/mol]
    Exchange sSAPT0                 0.31489003 [mEh]       0.19759648 [kcal/mol]       0.82674367 [kJ/mol]
    Induction sSAPT0               -0.31948064 [mEh]      -0.20047713 [kcal/mol]      -0.83879631 [kJ/mol]
    Dispersion sSAPT0              -0.65879278 [mEh]      -0.41339871 [kcal/mol]      -1.72966021 [kJ/mol]
  Total sSAPT0                     -4.21239777 [mEh]      -2.64331951 [kcal/mol]     -11.05964881 [kJ/mol]
  --------------------------------------------------------------------------------------------------------

*** Psi4 exiting successfully. Buy a developer a beer!
