                               Psi4 1.4a2.dev224

  ==> Input File <==

--------------------------------------------------------------------------
#Generated by lconvert.py for sapt job

memory 50 GB

molecule  {
0 1
  C      -0.849320   -0.339500    2.491720
  H       0.184340   -0.011050    2.416190
  H      -0.882500   -1.342050    2.912700
  H      -1.390800    0.316880    3.168430
  C      -1.564030   -0.353320    1.159480
  O      -2.749530   -0.651540    1.056760
  N      -0.801650   -0.027360    0.088340
  H       0.161190    0.240360    0.218710
  C      -1.385350   -0.002350   -1.234140
  H      -1.891620   -0.942800   -1.440100
  H      -2.119970    0.796210   -1.330880
  H      -0.594650    0.149570   -1.963130
--
0 1
  O       2.762150    0.255710    0.528060
  H       3.483010    0.883000    0.618480
  C       3.281240   -1.049660    0.761950
  H       2.448670   -1.738450    0.656370
  H       4.047380   -1.318650    0.035060
  H       3.689330   -1.151110    1.767580
units angstrom
no_reorient
symmetry c1
}

set {
scf_type DF
basis aug-cc-pvtz
freeze_core True
guess SAD
}
energy('sapt2+')
--------------------------------------------------------------------------

  //              Dimer HF             //
    Molecular point group: c1
  Charge       = 0
  Multiplicity = 1
  Basis Set: AUG-CC-PVTZ
    Blend: AUG-CC-PVTZ
  Basis Set: (AUG-CC-PVTZ AUX)
    Blend: AUG-CC-PVTZ-JKFIT
  @DF-RHF Final Energy:  -362.20016270105458
    Total Energy =                       -362.2001627010545803
  //            Monomer A HF           //
    Molecular point group: c1
  Multiplicity = 1
  Basis Set: AUG-CC-PVTZ
    Blend: AUG-CC-PVTZ
  Basis Set: (AUG-CC-PVTZ AUX)
    Blend: AUG-CC-PVTZ-JKFIT
  @DF-RHF Final Energy:  -247.10302542833944
    Total Energy =                       -247.1030254283394356
  //            Monomer B HF           //
    Molecular point group: c1

    Geometry (in Angstrom), charge = 0, multiplicity = 1:

       Center              X                  Y                   Z               Mass
    ------------   -----------------  -----------------  -----------------  -----------------
      Gh(C)          -0.753744064321    -0.036845122974     1.807959430433    12.000000000000
      Gh(H)           0.279915935679     0.291604877026     1.732429430433     1.007825032230
      Gh(H)          -0.786924064321    -1.039395122974     2.228939430433     1.007825032230
      Gh(H)          -1.295224064321     0.619534877026     2.484669430433     1.007825032230
      Gh(C)          -1.468454064321    -0.050665122974     0.475719430433    12.000000000000
      Gh(O)          -2.653954064321    -0.348885122974     0.372999430433    15.994914619570
      Gh(N)          -0.706074064321     0.275294877026    -0.595420569567    14.003074004430
      Gh(H)           0.256765935679     0.543014877026    -0.465050569567     1.007825032230
      Gh(C)          -1.289774064321     0.300304877026    -1.917900569567    12.000000000000
      Gh(H)          -1.796044064321    -0.640145122974    -2.123860569567     1.007825032230
      Gh(H)          -2.024394064321     1.098864877026    -2.014640569567     1.007825032230
      Gh(H)          -0.499074064321     0.452224877026    -2.646890569567     1.007825032230
         O            2.857725935679     0.558364877026    -0.155700569567    15.994914619570
         H            3.578585935679     1.185654877026    -0.065280569567     1.007825032230
         C            3.376815935679    -0.747005122974     0.078189430433    12.000000000000
         H            2.544245935679    -1.435795122974    -0.027390569567     1.007825032230
         H            4.142955935679    -1.015995122974    -0.648700569567     1.007825032230
         H            3.784905935679    -0.848455122974     1.083819430433     1.007825032230

  Charge       = 0
  Multiplicity = 1
  Basis Set: AUG-CC-PVTZ
    Blend: AUG-CC-PVTZ
  Basis Set: (AUG-CC-PVTZ AUX)
    Blend: AUG-CC-PVTZ-JKFIT

    Orbital Energies [Eh]
    ---------------------

    Doubly Occupied:

       1A    -20.558898     2A    -11.270718     3A     -1.356418
       4A     -0.926784     5A     -0.690590     6A     -0.620886
       7A     -0.592520     8A     -0.504929     9A     -0.452415

  @DF-RHF Final Energy:  -115.09214450127934

   => Energetics <=

    Nuclear Repulsion Energy =             40.3036919570292724
    One-Electron Energy =                -236.8433568710235591
    Two-Electron Energy =                  81.4475204127149368
    Total Energy =                       -115.0921445012793356

  Dipole Moment: [D]
     X:     1.7126      Y:    -0.4468      Z:     0.4006     Total:     1.8147

    SAPT Results
  --------------------------------------------------------------------------------------------------------
    Electrostatics                 -5.14046365 [mEh]      -3.22568964 [kcal/mol]     -13.49628545 [kJ/mol]
      Elst10,r                     -5.46688406 [mEh]      -3.43052154 [kcal/mol]     -14.35330212 [kJ/mol]
      Elst12,r                      0.32642041 [mEh]       0.20483190 [kcal/mol]       0.85701667 [kJ/mol]

    Exchange                        1.51284199 [mEh]       0.94932268 [kcal/mol]       3.97196611 [kJ/mol]
      Exch10                        1.23017882 [mEh]       0.77194886 [kcal/mol]       3.22983404 [kJ/mol]
      Exch10(S^2)                   1.22924156 [mEh]       0.77136072 [kcal/mol]       3.22737327 [kJ/mol]
      Exch11(S^2)                  -0.01286551 [mEh]      -0.00807323 [kcal/mol]      -0.03377839 [kJ/mol]
      Exch12(S^2)                   0.29552869 [mEh]       0.18544705 [kcal/mol]       0.77591046 [kJ/mol]

    Induction                      -0.79457720 [mEh]      -0.49860472 [kcal/mol]      -2.08616216 [kJ/mol]
      Ind20,r                      -0.78130539 [mEh]      -0.49027654 [kcal/mol]      -2.05131703 [kJ/mol]
      Ind22                        -0.05142729 [mEh]      -0.03227111 [kcal/mol]      -0.13502234 [kJ/mol]
      Exch-Ind20,r                  0.19622970 [mEh]       0.12313600 [kcal/mol]       0.51520102 [kJ/mol]
      Exch-Ind22                    0.01291628 [mEh]       0.00810509 [kcal/mol]       0.03391170 [kJ/mol]
      delta HF,r (2)               -0.17099050 [mEh]      -0.10729816 [kcal/mol]      -0.44893551 [kJ/mol]

    Dispersion                     -2.48970307 [mEh]      -1.56231226 [kcal/mol]      -6.53671450 [kJ/mol]
      Disp20                       -2.37241039 [mEh]      -1.48870999 [kcal/mol]      -6.22876261 [kJ/mol]
      Disp21                        0.17836460 [mEh]       0.11192548 [kcal/mol]       0.46829620 [kJ/mol]
      Disp22 (SDQ)                 -0.00027279 [mEh]      -0.00017118 [kcal/mol]      -0.00071622 [kJ/mol]
      Disp22 (T)                   -0.39251529 [mEh]      -0.24630706 [kcal/mol]      -1.03054875 [kJ/mol]
      Est. Disp22 (T)              -0.42935394 [mEh]      -0.26942366 [kcal/mol]      -1.12726861 [kJ/mol]
      Exch-Disp20                   0.13396945 [mEh]       0.08406710 [kcal/mol]       0.35173675 [kJ/mol]

  Total HF                         -4.99277144 [mEh]      -3.13301138 [kcal/mol]     -13.10851960 [kJ/mol]
  Total SAPT0                      -7.23121237 [mEh]      -4.53765427 [kcal/mol]     -18.98554547 [kJ/mol]
  Total SAPT2                      -6.66063980 [mEh]      -4.17961457 [kcal/mol]     -17.48750738 [kJ/mol]
  Total SAPT2+                     -6.91190193 [mEh]      -4.33728394 [kcal/mol]     -18.14719601 [kJ/mol]

  Special recipe for scaled SAPT0 (see Manual):
    Electrostatics sSAPT0          -5.46688406 [mEh]      -3.43052154 [kcal/mol]     -14.35330212 [kJ/mol]
    Exchange sSAPT0                 1.23017882 [mEh]       0.77194886 [kcal/mol]       3.22983404 [kJ/mol]
    Induction sSAPT0               -0.75561700 [mEh]      -0.47415682 [kcal/mol]      -1.98387215 [kJ/mol]
    Dispersion sSAPT0              -2.23813426 [mEh]      -1.40445045 [kcal/mol]      -5.87622069 [kJ/mol]
  Total sSAPT0                     -7.23045650 [mEh]      -4.53717995 [kcal/mol]     -18.98356092 [kJ/mol]
  --------------------------------------------------------------------------------------------------------

*** Psi4 exiting successfully. Buy a developer a beer!
