                               Psi4 1.4a2.dev224

  ==> Input File <==

--------------------------------------------------------------------------
#Generated by lconvert.py for sapt job

memory 50 GB

molecule  {
0 1
  C      -0.849320   -0.339500    2.491720
  H       0.184340   -0.011050    2.416190
  H      -0.882500   -1.342050    2.912700
  H      -1.390800    0.316880    3.168430
  C      -1.564030   -0.353320    1.159480
  O      -2.749530   -0.651540    1.056760
  N      -0.801650   -0.027360    0.088340
  H       0.161190    0.240360    0.218710
  C      -1.385350   -0.002350   -1.234140
  H      -1.891620   -0.942800   -1.440100
  H      -2.119970    0.796210   -1.330880
  H      -0.594650    0.149570   -1.963130
--
0 1
  O       3.362350    0.259250    0.599450
  H       4.083210    0.886540    0.689860
  C       3.881440   -1.046120    0.833330
  H       3.048860   -1.734910    0.727760
  H       4.647570   -1.315110    0.106450
  H       4.289530   -1.147570    1.838970
units angstrom
no_reorient
symmetry c1
}

set {
scf_type DF
basis aug-cc-pvtz
freeze_core True
guess SAD
}
energy('sapt2+')
--------------------------------------------------------------------------

  //              Dimer HF             //
    Molecular point group: c1
  Charge       = 0
  Multiplicity = 1
  Basis Set: AUG-CC-PVTZ
    Blend: AUG-CC-PVTZ
  Basis Set: (AUG-CC-PVTZ AUX)
    Blend: AUG-CC-PVTZ-JKFIT
  @DF-RHF Final Energy:  -362.19840546777925
    Total Energy =                       -362.1984054677792528
  //            Monomer A HF           //
    Molecular point group: c1
  Multiplicity = 1
  Basis Set: AUG-CC-PVTZ
    Blend: AUG-CC-PVTZ
  Basis Set: (AUG-CC-PVTZ AUX)
    Blend: AUG-CC-PVTZ-JKFIT
  @DF-RHF Final Energy:  -247.10299643942130
    Total Energy =                       -247.1029964394213039
  //            Monomer B HF           //
    Molecular point group: c1

    Geometry (in Angstrom), charge = 0, multiplicity = 1:

       Center              X                  Y                   Z               Mass
    ------------   -----------------  -----------------  -----------------  -----------------
      Gh(C)          -0.936674220209    -0.037924052383     1.786202258608    12.000000000000
      Gh(H)           0.096985779791     0.290525947617     1.710672258608     1.007825032230
      Gh(H)          -0.969854220209    -1.040474052383     2.207182258608     1.007825032230
      Gh(H)          -1.478154220209     0.618455947617     2.462912258608     1.007825032230
      Gh(C)          -1.651384220209    -0.051744052383     0.453962258608    12.000000000000
      Gh(O)          -2.836884220209    -0.349964052383     0.351242258608    15.994914619570
      Gh(N)          -0.889004220209     0.274215947617    -0.617177741392    14.003074004430
      Gh(H)           0.073835779791     0.541935947617    -0.486807741392     1.007825032230
      Gh(C)          -1.472704220209     0.299225947617    -1.939657741392    12.000000000000
      Gh(H)          -1.978974220209    -0.641224052383    -2.145617741392     1.007825032230
      Gh(H)          -2.207324220209     1.097785947617    -2.036397741392     1.007825032230
      Gh(H)          -0.682004220209     0.451145947617    -2.668647741392     1.007825032230
         O            3.274995779791     0.560825947617    -0.106067741392    15.994914619570
         H            3.995855779791     1.188115947617    -0.015657741392     1.007825032230
         C            3.794085779791    -0.744544052383     0.127812258608    12.000000000000
         H            2.961505779791    -1.433334052383     0.022242258608     1.007825032230
         H            4.560215779791    -1.013534052383    -0.599067741392     1.007825032230
         H            4.202175779791    -0.845994052383     1.133452258608     1.007825032230

  Charge       = 0
  Multiplicity = 1
  Basis Set: AUG-CC-PVTZ
    Blend: AUG-CC-PVTZ
  Basis Set: (AUG-CC-PVTZ AUX)
    Blend: AUG-CC-PVTZ-JKFIT

    Orbital Energies [Eh]
    ---------------------

    Doubly Occupied:

       1A    -20.558936     2A    -11.270717     3A     -1.356439
       4A     -0.926793     5A     -0.690604     6A     -0.620893
       7A     -0.592528     8A     -0.504934     9A     -0.452426

  @DF-RHF Final Energy:  -115.09210983674042

   => Energetics <=

    Nuclear Repulsion Energy =             40.3037140232261279
    One-Electron Energy =                -236.8431059450895475
    Two-Electron Energy =                  81.4472820851230068
    Total Energy =                       -115.0921098367404198

  Dipole Moment: [D]
     X:     1.7129      Y:    -0.4469      Z:     0.4007     Total:     1.8150

    SAPT Results
  --------------------------------------------------------------------------------------------------------
    Electrostatics                 -2.90394370 [mEh]      -1.82225218 [kcal/mol]      -7.62430313 [kJ/mol]
      Elst10,r                     -3.18842604 [mEh]      -2.00076755 [kcal/mol]      -8.37121141 [kJ/mol]
      Elst12,r                      0.28448234 [mEh]       0.17851536 [kcal/mol]       0.74690829 [kJ/mol]

    Exchange                        0.18733171 [mEh]       0.11755242 [kcal/mol]       0.49183933 [kJ/mol]
      Exch10                        0.14349637 [mEh]       0.09004533 [kcal/mol]       0.37674967 [kJ/mol]
      Exch10(S^2)                   0.14348142 [mEh]       0.09003595 [kcal/mol]       0.37671043 [kJ/mol]
      Exch11(S^2)                  -0.00346276 [mEh]      -0.00217292 [kcal/mol]      -0.00909148 [kJ/mol]
      Exch12(S^2)                   0.04729810 [mEh]       0.02968000 [kcal/mol]       0.12418113 [kJ/mol]

    Induction                      -0.25223199 [mEh]      -0.15827796 [kcal/mol]      -0.66223499 [kJ/mol]
      Ind20,r                      -0.24455704 [mEh]      -0.15346186 [kcal/mol]      -0.64208441 [kJ/mol]
      Ind22                         0.00219173 [mEh]       0.00137533 [kcal/mol]       0.00575440 [kJ/mol]
      Exch-Ind20,r                  0.01805069 [mEh]       0.01132698 [kcal/mol]       0.04739209 [kJ/mol]
      Exch-Ind22                   -0.00016177 [mEh]      -0.00010151 [kcal/mol]      -0.00042473 [kJ/mol]
      delta HF,r (2)               -0.02775561 [mEh]      -0.01741691 [kcal/mol]      -0.07287234 [kJ/mol]

    Dispersion                     -1.02646451 [mEh]      -0.64411621 [kcal/mol]      -2.69498221 [kJ/mol]
      Disp20                       -0.96017641 [mEh]      -0.60251979 [kcal/mol]      -2.52094281 [kJ/mol]
      Disp21                        0.09018615 [mEh]       0.05659267 [kcal/mol]       0.23678372 [kJ/mol]
      Disp22 (SDQ)                  0.00183520 [mEh]       0.00115160 [kcal/mol]       0.00481831 [kJ/mol]
      Disp22 (T)                   -0.16748321 [mEh]      -0.10509730 [kcal/mol]      -0.43972712 [kJ/mol]
      Est. Disp22 (T)              -0.17765285 [mEh]      -0.11147884 [kcal/mol]      -0.46642748 [kJ/mol]
      Exch-Disp20                   0.01934339 [mEh]       0.01213816 [kcal/mol]       0.05078605 [kJ/mol]

  Total HF                         -3.29919162 [mEh]      -2.07027400 [kcal/mol]      -8.66202640 [kJ/mol]
  Total SAPT0                      -4.24002464 [mEh]      -2.66065563 [kcal/mol]     -11.13218315 [kJ/mol]
  Total SAPT2                      -3.90967700 [mEh]      -2.45335936 [kcal/mol]     -10.26485555 [kJ/mol]
  Total SAPT2+                     -3.99530849 [mEh]      -2.50709393 [kcal/mol]     -10.48968100 [kJ/mol]

  Special recipe for scaled SAPT0 (see Manual):
    Electrostatics sSAPT0          -3.18842604 [mEh]      -2.00076755 [kcal/mol]      -8.37121141 [kJ/mol]
    Exchange sSAPT0                 0.14349637 [mEh]       0.09004533 [kcal/mol]       0.37674967 [kJ/mol]
    Induction sSAPT0               -0.25425631 [mEh]      -0.15954824 [kcal/mol]      -0.66754984 [kJ/mol]
    Dispersion sSAPT0              -0.94082697 [mEh]      -0.59037784 [kcal/mol]      -2.47014088 [kJ/mol]
  Total sSAPT0                     -4.24001295 [mEh]      -2.66064829 [kcal/mol]     -11.13215246 [kJ/mol]
  --------------------------------------------------------------------------------------------------------

*** Psi4 exiting successfully. Buy a developer a beer!
