                               Psi4 1.4a2.dev224

  ==> Input File <==

--------------------------------------------------------------------------
#Generated by lconvert.py for sapt job

memory 50 GB

molecule  {
0 1
  C      -0.849320   -0.339500    2.491720
  H       0.184340   -0.011050    2.416190
  H      -0.882500   -1.342050    2.912700
  H      -1.390800    0.316880    3.168430
  C      -1.564030   -0.353320    1.159480
  O      -2.749530   -0.651540    1.056760
  N      -0.801650   -0.027360    0.088340
  H       0.161190    0.240360    0.218710
  C      -1.385350   -0.002350   -1.234140
  H      -1.891620   -0.942800   -1.440100
  H      -2.119970    0.796210   -1.330880
  H      -0.594650    0.149570   -1.963130
--
0 1
  O       3.962550    0.262780    0.670830
  H       4.683400    0.890080    0.761250
  C       4.481630   -1.042580    0.904720
  H       3.649060   -1.731370    0.799140
  H       5.247770   -1.311570    0.177830
  H       4.889730   -1.144030    1.910350
units angstrom
no_reorient
symmetry c1
}

set {
scf_type DF
basis aug-cc-pvtz
freeze_core True
guess SAD
}
energy('sapt2+')
--------------------------------------------------------------------------

  //              Dimer HF             //
    Molecular point group: c1
  Charge       = 0
  Multiplicity = 1
  Basis Set: AUG-CC-PVTZ
    Blend: AUG-CC-PVTZ
  Basis Set: (AUG-CC-PVTZ AUX)
    Blend: AUG-CC-PVTZ-JKFIT
  @DF-RHF Final Energy:  -362.19727194080099
    Total Energy =                       -362.1972719408009880
  //            Monomer A HF           //
    Molecular point group: c1
  Multiplicity = 1
  Basis Set: AUG-CC-PVTZ
    Blend: AUG-CC-PVTZ
  Basis Set: (AUG-CC-PVTZ AUX)
    Blend: AUG-CC-PVTZ-JKFIT
  @DF-RHF Final Energy:  -247.10298410582334
    Total Energy =                       -247.1029841058233387
  //            Monomer B HF           //
    Molecular point group: c1

    Geometry (in Angstrom), charge = 0, multiplicity = 1:

       Center              X                  Y                   Z               Mass
    ------------   -----------------  -----------------  -----------------  -----------------
      Gh(C)          -1.119603330011    -0.039001459611     1.764445658786    12.000000000000
      Gh(H)          -0.085943330011     0.289448540389     1.688915658786     1.007825032230
      Gh(H)          -1.152783330011    -1.041551459611     2.185425658786     1.007825032230
      Gh(H)          -1.661083330011     0.617378540389     2.441155658786     1.007825032230
      Gh(C)          -1.834313330011    -0.052821459611     0.432205658786    12.000000000000
      Gh(O)          -3.019813330011    -0.351041459611     0.329485658786    15.994914619570
      Gh(N)          -1.071933330011     0.273138540389    -0.638934341214    14.003074004430
      Gh(H)          -0.109093330011     0.540858540389    -0.508564341214     1.007825032230
      Gh(C)          -1.655633330011     0.298148540389    -1.961414341214    12.000000000000
      Gh(H)          -2.161903330011    -0.642301459611    -2.167374341214     1.007825032230
      Gh(H)          -2.390253330011     1.096708540389    -2.058154341214     1.007825032230
      Gh(H)          -0.864933330011     0.450068540389    -2.690404341214     1.007825032230
         O            3.692266669989     0.563278540389    -0.056444341214    15.994914619570
         H            4.413116669989     1.190578540389     0.033975658786     1.007825032230
         C            4.211346669989    -0.742081459611     0.177445658786    12.000000000000
         H            3.378776669989    -1.430871459611     0.071865658786     1.007825032230
         H            4.977486669989    -1.011071459611    -0.549444341214     1.007825032230
         H            4.619446669989    -0.843531459611     1.183075658786     1.007825032230

  Charge       = 0
  Multiplicity = 1
  Basis Set: AUG-CC-PVTZ
    Blend: AUG-CC-PVTZ
  Basis Set: (AUG-CC-PVTZ AUX)
    Blend: AUG-CC-PVTZ-JKFIT

    Orbital Energies [Eh]
    ---------------------

    Doubly Occupied:

       1A    -20.558946     2A    -11.270713     3A     -1.356448
       4A     -0.926795     5A     -0.690610     6A     -0.620895
       7A     -0.592535     8A     -0.504934     9A     -0.452428

  @DF-RHF Final Energy:  -115.09209827804918

   => Energetics <=

    Nuclear Repulsion Energy =             40.3038742796639440
    One-Electron Energy =                -236.8433348393232052
    Two-Electron Energy =                  81.4473622816100828
    Total Energy =                       -115.0920982780491784

  Dipole Moment: [D]
     X:     1.7129      Y:    -0.4469      Z:     0.4008     Total:     1.8151

    SAPT Results
  --------------------------------------------------------------------------------------------------------
    Electrostatics                 -1.87831369 [mEh]      -1.17865963 [kcal/mol]      -4.93151190 [kJ/mol]
      Elst10,r                     -2.09622215 [mEh]      -1.31539926 [kcal/mol]      -5.50363051 [kJ/mol]
      Elst12,r                      0.21790847 [mEh]       0.13673963 [kcal/mol]       0.57211861 [kJ/mol]

    Exchange                        0.02287942 [mEh]       0.01435705 [kcal/mol]       0.06006990 [kJ/mol]
      Exch10                        0.01658213 [mEh]       0.01040545 [kcal/mol]       0.04353639 [kJ/mol]
      Exch10(S^2)                   0.01658190 [mEh]       0.01040530 [kcal/mol]       0.04353576 [kJ/mol]
      Exch11(S^2)                  -0.00062714 [mEh]      -0.00039354 [kcal/mol]      -0.00164655 [kJ/mol]
      Exch12(S^2)                   0.00692442 [mEh]       0.00434514 [kcal/mol]       0.01818007 [kJ/mol]

    Induction                      -0.10479740 [mEh]      -0.06576136 [kcal/mol]      -0.27514554 [kJ/mol]
      Ind20,r                      -0.10519190 [mEh]      -0.06600891 [kcal/mol]      -0.27618128 [kJ/mol]
      Ind22                         0.00521034 [mEh]       0.00326954 [kcal/mol]       0.01367974 [kJ/mol]
      Exch-Ind20,r                  0.00183378 [mEh]       0.00115071 [kcal/mol]       0.00481459 [kJ/mol]
      Exch-Ind22                   -0.00009083 [mEh]      -0.00005700 [kcal/mol]      -0.00023847 [kJ/mol]
      delta HF,r (2)               -0.00655879 [mEh]      -0.00411570 [kcal/mol]      -0.01722011 [kJ/mol]

    Dispersion                     -0.47179260 [mEh]      -0.29605432 [kcal/mol]      -1.23869129 [kJ/mol]
      Disp20                       -0.44377559 [mEh]      -0.27847339 [kcal/mol]      -1.16513266 [kJ/mol]
      Disp21                        0.04982730 [mEh]       0.03126710 [kcal/mol]       0.13082155 [kJ/mol]
      Disp22 (SDQ)                  0.00205119 [mEh]       0.00128714 [kcal/mol]       0.00538539 [kJ/mol]
      Disp22 (T)                   -0.07916357 [mEh]      -0.04967589 [kcal/mol]      -0.20784392 [kJ/mol]
      Est. Disp22 (T)              -0.08257642 [mEh]      -0.05181748 [kcal/mol]      -0.21680435 [kJ/mol]
      Exch-Disp20                   0.00268093 [mEh]       0.00168231 [kcal/mol]       0.00703878 [kJ/mol]

  Total HF                         -2.18955693 [mEh]      -1.37396772 [kcal/mol]      -5.74868092 [kJ/mol]
  Total SAPT0                      -2.63065159 [mEh]      -1.65075880 [kcal/mol]      -6.90677480 [kJ/mol]
  Total SAPT2                      -2.40132633 [mEh]      -1.50685502 [kcal/mol]      -6.30468142 [kJ/mol]
  Total SAPT2+                     -2.43202427 [mEh]      -1.52611827 [kcal/mol]      -6.38527883 [kJ/mol]

  Special recipe for scaled SAPT0 (see Manual):
    Electrostatics sSAPT0          -2.09622215 [mEh]      -1.31539926 [kcal/mol]      -5.50363051 [kJ/mol]
    Exchange sSAPT0                 0.01658213 [mEh]       0.01040545 [kcal/mol]       0.04353639 [kJ/mol]
    Induction sSAPT0               -0.10991683 [mEh]      -0.06897385 [kcal/mol]      -0.28858659 [kJ/mol]
    Dispersion sSAPT0              -0.44109455 [mEh]      -0.27679101 [kcal/mol]      -1.15809358 [kJ/mol]
  Total sSAPT0                     -2.63065140 [mEh]      -1.65075867 [kcal/mol]      -6.90677429 [kJ/mol]
  --------------------------------------------------------------------------------------------------------

*** Psi4 exiting successfully. Buy a developer a beer!
