                               Psi4 1.4a2.dev224

  ==> Input File <==

--------------------------------------------------------------------------
#Generated by lconvert.py for sapt job

memory 50 GB

molecule  {
0 1
  C      -0.778570   -0.463320    2.490390
  H       0.224750   -0.050950    2.413480
  H      -0.722480   -1.487090    2.854590
  H      -1.351910    0.110820    3.213680
  C      -1.520500   -0.456630    1.172330
  O      -2.700840   -0.783590    1.089600
  N      -0.791950   -0.069640    0.100590
  H       0.194110    0.145710    0.202920
  C      -1.397800   -0.056080   -1.211320
  H      -2.314930    0.528890   -1.199710
  H      -0.698800    0.387260   -1.915370
  H      -1.652980   -1.061530   -1.545430
--
0 1
  N       3.492210    0.321350    0.331340
  H       3.895870    0.861270    1.086540
  H       3.910210    0.688730   -0.514300
  C       3.864510   -1.089830    0.485100
  H       3.438220   -1.660860   -0.336280
  H       4.939910   -1.276520    0.510880
  H       3.430040   -1.474240    1.404930
units angstrom
no_reorient
symmetry c1
}

set {
scf_type DF
basis aug-cc-pvtz
freeze_core True
guess SAD
}
energy('sapt2+')
--------------------------------------------------------------------------

  //              Dimer HF             //
    Molecular point group: c1
  Charge       = 0
  Multiplicity = 1
  Basis Set: AUG-CC-PVTZ
    Blend: AUG-CC-PVTZ
  Basis Set: (AUG-CC-PVTZ AUX)
    Blend: AUG-CC-PVTZ-JKFIT
  @DF-RHF Final Energy:  -342.36174458081632
    Total Energy =                       -342.3617445808163211
  //            Monomer A HF           //
    Molecular point group: c1
  Multiplicity = 1
  Basis Set: AUG-CC-PVTZ
    Blend: AUG-CC-PVTZ
  Basis Set: (AUG-CC-PVTZ AUX)
    Blend: AUG-CC-PVTZ-JKFIT
  @DF-RHF Final Energy:  -247.10259331509855
    Total Energy =                       -247.1025933150985452
  //            Monomer B HF           //
    Molecular point group: c1

    Geometry (in Angstrom), charge = 0, multiplicity = 1:

       Center              X                  Y                   Z               Mass
    ------------   -----------------  -----------------  -----------------  -----------------
      Gh(C)          -0.874827643276    -0.097105074572     1.866549405849    12.000000000000
      Gh(H)           0.128492356724     0.315264925428     1.789639405849     1.007825032230
      Gh(H)          -0.818737643276    -1.120875074572     2.230749405849     1.007825032230
      Gh(H)          -1.448167643276     0.477034925428     2.589839405849     1.007825032230
      Gh(C)          -1.616757643276    -0.090415074572     0.548489405849    12.000000000000
      Gh(O)          -2.797097643276    -0.417375074572     0.465759405849    15.994914619570
      Gh(N)          -0.888207643276     0.296574925428    -0.523250594151    14.003074004430
      Gh(H)           0.097852356724     0.511924925428    -0.420920594151     1.007825032230
      Gh(C)          -1.494057643276     0.310134925428    -1.835160594151    12.000000000000
      Gh(H)          -2.411187643276     0.895104925428    -1.823550594151     1.007825032230
      Gh(H)          -0.795057643276     0.753474925428    -2.539210594151     1.007825032230
      Gh(H)          -1.749237643276    -0.695315074572    -2.169270594151     1.007825032230
         N            3.395952356724     0.687564925428    -0.292500594151    14.003074004430
         H            3.799612356724     1.227484925428     0.462699405849     1.007825032230
         H            3.813952356724     1.054944925428    -1.138140594151     1.007825032230
         C            3.768252356724    -0.723615074572    -0.138740594151    12.000000000000
         H            3.341962356724    -1.294645074572    -0.960120594151     1.007825032230
         H            4.843652356724    -0.910305074572    -0.112960594151     1.007825032230
         H            3.333782356724    -1.108025074572     0.781089405849     1.007825032230

  Charge       = 0
  Multiplicity = 1
  Basis Set: AUG-CC-PVTZ
    Blend: AUG-CC-PVTZ
  Basis Set: (AUG-CC-PVTZ AUX)
    Blend: AUG-CC-PVTZ-JKFIT

    Orbital Energies [Eh]
    ---------------------

    Doubly Occupied:

       1A    -15.540263     2A    -11.240472     3A     -1.170014
       4A     -0.896729     5A     -0.660784     6A     -0.604126
       7A     -0.555446     8A     -0.517087     9A     -0.394156

  @DF-RHF Final Energy:   -95.25541697008478

   => Energetics <=

    Nuclear Repulsion Energy =             42.0379912234877224
    One-Electron Energy =                -211.4286568744921340
    Two-Electron Energy =                  74.1352486809196307
    Total Energy =                        -95.2554169700847808

  Dipole Moment: [D]
     X:     1.4555      Y:    -0.1059      Z:     0.0241     Total:     1.4596

    SAPT Results
  --------------------------------------------------------------------------------------------------------
    Electrostatics                 -3.52354548 [mEh]      -2.21105817 [kcal/mol]      -9.25106738 [kJ/mol]
      Elst10,r                     -3.66115805 [mEh]      -2.29741136 [kcal/mol]      -9.61236913 [kJ/mol]
      Elst12,r                      0.13761257 [mEh]       0.08635319 [kcal/mol]       0.36130175 [kJ/mol]

    Exchange                        0.38055992 [mEh]       0.23880496 [kcal/mol]       0.99915994 [kJ/mol]
      Exch10                        0.30279850 [mEh]       0.19000892 [kcal/mol]       0.79499734 [kJ/mol]
      Exch10(S^2)                   0.30270109 [mEh]       0.18994780 [kcal/mol]       0.79474160 [kJ/mol]
      Exch11(S^2)                  -0.00118884 [mEh]      -0.00074601 [kcal/mol]      -0.00312130 [kJ/mol]
      Exch12(S^2)                   0.07895027 [mEh]       0.04954204 [kcal/mol]       0.20728390 [kJ/mol]

    Induction                      -0.39521222 [mEh]      -0.24799941 [kcal/mol]      -1.03762954 [kJ/mol]
      Ind20,r                      -0.38854377 [mEh]      -0.24381490 [kcal/mol]      -1.02012152 [kJ/mol]
      Ind22                        -0.02359571 [mEh]      -0.01480653 [kcal/mol]      -0.06195052 [kJ/mol]
      Exch-Ind20,r                  0.07112908 [mEh]       0.04463417 [kcal/mol]       0.18674938 [kJ/mol]
      Exch-Ind22                    0.00431957 [mEh]       0.00271057 [kcal/mol]       0.01134102 [kJ/mol]
      delta HF,r (2)               -0.05852139 [mEh]      -0.03672273 [kcal/mol]      -0.15364789 [kJ/mol]

    Dispersion                     -1.24208948 [mEh]      -0.77942292 [kcal/mol]      -3.26110549 [kJ/mol]
      Disp20                       -1.17186203 [mEh]      -0.73535453 [kcal/mol]      -3.07672334 [kJ/mol]
      Disp21                        0.09266974 [mEh]       0.05815114 [kcal/mol]       0.24330437 [kJ/mol]
      Disp22 (SDQ)                  0.01344286 [mEh]       0.00843552 [kcal/mol]       0.03529422 [kJ/mol]
      Disp22 (T)                   -0.20078735 [mEh]      -0.12599597 [kcal/mol]      -0.52716712 [kJ/mol]
      Est. Disp22 (T)              -0.21734298 [mEh]      -0.13638478 [kcal/mol]      -0.57063393 [kJ/mol]
      Exch-Disp20                   0.04100294 [mEh]       0.02572973 [kcal/mol]       0.10765319 [kJ/mol]

  Total HF                         -3.73429563 [mEh]      -2.34330589 [kcal/mol]      -9.80439183 [kJ/mol]
  Total SAPT0                      -4.86515473 [mEh]      -3.05293068 [kcal/mol]     -12.77346199 [kJ/mol]
  Total SAPT2                      -4.66905687 [mEh]      -2.92987742 [kcal/mol]     -12.25860713 [kJ/mol]
  Total SAPT2+                     -4.78028726 [mEh]      -2.99967554 [kcal/mol]     -12.55064248 [kJ/mol]

  Special recipe for scaled SAPT0 (see Manual):
    Electrostatics sSAPT0          -3.66115805 [mEh]      -2.29741136 [kcal/mol]      -9.61236913 [kJ/mol]
    Exchange sSAPT0                 0.30279850 [mEh]       0.19000892 [kcal/mol]       0.79499734 [kJ/mol]
    Induction sSAPT0               -0.37586739 [mEh]      -0.23586035 [kcal/mol]      -0.98683971 [kJ/mol]
    Dispersion sSAPT0              -1.13081950 [mEh]      -0.70959995 [kcal/mol]      -2.96896619 [kJ/mol]
  Total sSAPT0                     -4.86504645 [mEh]      -3.05286274 [kcal/mol]     -12.77317769 [kJ/mol]
  --------------------------------------------------------------------------------------------------------

*** Psi4 exiting successfully. Buy a developer a beer!
