                               Psi4 1.4a2.dev224

  ==> Input File <==

--------------------------------------------------------------------------
#Generated by lconvert.py for sapt job

memory 50 GB

molecule  {
0 1
  C      -0.778570   -0.463320    2.490390
  H       0.224750   -0.050950    2.413480
  H      -0.722480   -1.487090    2.854590
  H      -1.351910    0.110820    3.213680
  C      -1.520500   -0.456630    1.172330
  O      -2.700840   -0.783590    1.089600
  N      -0.791950   -0.069640    0.100590
  H       0.194110    0.145710    0.202920
  C      -1.397800   -0.056080   -1.211320
  H      -2.314930    0.528890   -1.199710
  H      -0.698800    0.387260   -1.915370
  H      -1.652980   -1.061530   -1.545430
--
0 1
  N       2.873830    0.288420    0.307270
  H       3.277500    0.828340    1.062470
  H       3.291830    0.655800   -0.538380
  C       3.246130   -1.122760    0.461020
  H       2.819850   -1.693790   -0.360360
  H       4.321530   -1.309450    0.486800
  H       2.811660   -1.507170    1.380850
units angstrom
no_reorient
symmetry c1
}

set {
scf_type DF
basis aug-cc-pvtz
freeze_core True
guess SAD
}
energy('sapt2+')
--------------------------------------------------------------------------

  //              Dimer HF             //
    Molecular point group: c1
  Charge       = 0
  Multiplicity = 1
  Basis Set: AUG-CC-PVTZ
    Blend: AUG-CC-PVTZ
  Basis Set: (AUG-CC-PVTZ AUX)
    Blend: AUG-CC-PVTZ-JKFIT
  @DF-RHF Final Energy:  -342.36380685068036
    Total Energy =                       -342.3638068506803620
  //            Monomer A HF           //
    Molecular point group: c1
  Multiplicity = 1
  Basis Set: AUG-CC-PVTZ
    Blend: AUG-CC-PVTZ
  Basis Set: (AUG-CC-PVTZ AUX)
    Blend: AUG-CC-PVTZ-JKFIT
  @DF-RHF Final Energy:  -247.10262493846960
    Total Energy =                       -247.1026249384696030
  //            Monomer B HF           //
    Molecular point group: c1

    Geometry (in Angstrom), charge = 0, multiplicity = 1:

       Center              X                  Y                   Z               Mass
    ------------   -----------------  -----------------  -----------------  -----------------
      Gh(C)          -0.690420498036    -0.087285006540     1.873728869920    12.000000000000
      Gh(H)           0.312899501964     0.325084993460     1.796818869920     1.007825032230
      Gh(H)          -0.634330498036    -1.111055006540     2.237928869920     1.007825032230
      Gh(H)          -1.263760498036     0.486854993460     2.597018869920     1.007825032230
      Gh(C)          -1.432350498036    -0.080595006540     0.555668869920    12.000000000000
      Gh(O)          -2.612690498036    -0.407555006540     0.472938869920    15.994914619570
      Gh(N)          -0.703800498036     0.306394993460    -0.516071130080    14.003074004430
      Gh(H)           0.282259501964     0.521744993460    -0.413741130080     1.007825032230
      Gh(C)          -1.309650498036     0.319954993460    -1.827981130080    12.000000000000
      Gh(H)          -2.226780498036     0.904924993460    -1.816371130080     1.007825032230
      Gh(H)          -0.610650498036     0.763294993460    -2.532031130080     1.007825032230
      Gh(H)          -1.564830498036    -0.685495006540    -2.162091130080     1.007825032230
         N            2.961979501964     0.664454993460    -0.309391130080    14.003074004430
         H            3.365649501964     1.204374993460     0.445808869920     1.007825032230
         H            3.379979501964     1.031834993460    -1.155041130080     1.007825032230
         C            3.334279501964    -0.746725006540    -0.155641130080    12.000000000000
         H            2.907999501964    -1.317755006540    -0.977021130080     1.007825032230
         H            4.409679501964    -0.933415006540    -0.129861130080     1.007825032230
         H            2.899809501964    -1.131135006540     0.764188869920     1.007825032230

  Charge       = 0
  Multiplicity = 1
  Basis Set: AUG-CC-PVTZ
    Blend: AUG-CC-PVTZ
  Basis Set: (AUG-CC-PVTZ AUX)
    Blend: AUG-CC-PVTZ-JKFIT

    Orbital Energies [Eh]
    ---------------------

    Doubly Occupied:

       1A    -15.540252     2A    -11.240479     3A     -1.170011
       4A     -0.896726     5A     -0.660779     6A     -0.604124
       7A     -0.555442     8A     -0.517084     9A     -0.394155

  @DF-RHF Final Energy:   -95.25543493409384

   => Energetics <=

    Nuclear Repulsion Energy =             42.0379675230391570
    One-Electron Energy =                -211.4287022774304603
    Two-Electron Energy =                  74.1352998202974618
    Total Energy =                        -95.2554349340938415

  Dipole Moment: [D]
     X:     1.4557      Y:    -0.1060      Z:     0.0241     Total:     1.4597

    SAPT Results
  --------------------------------------------------------------------------------------------------------
    Electrostatics                 -6.73444221 [mEh]      -4.22592629 [kcal/mol]     -17.68127559 [kJ/mol]
      Elst10,r                     -6.78046628 [mEh]      -4.25480682 [kcal/mol]     -17.80211175 [kJ/mol]
      Elst12,r                      0.04602406 [mEh]       0.02888054 [kcal/mol]       0.12083616 [kJ/mol]

    Exchange                        2.66625904 [mEh]       1.67310281 [kcal/mol]       7.00026214 [kJ/mol]
      Exch10                        2.25237313 [mEh]       1.41338548 [kcal/mol]       5.91360485 [kJ/mol]
      Exch10(S^2)                   2.24808604 [mEh]       1.41069529 [kcal/mol]       5.90234910 [kJ/mol]
      Exch11(S^2)                   0.01284361 [mEh]       0.00805948 [kcal/mol]       0.03372088 [kJ/mol]
      Exch12(S^2)                   0.40104230 [mEh]       0.25165784 [kcal/mol]       1.05293642 [kJ/mol]

    Induction                      -1.30782768 [mEh]      -0.82067426 [kcal/mol]      -3.43370111 [kJ/mol]
      Ind20,r                      -1.43290004 [mEh]      -0.89915835 [kcal/mol]      -3.76207853 [kJ/mol]
      Ind22                        -0.14758028 [mEh]      -0.09260803 [kcal/mol]      -0.38747198 [kJ/mol]
      Exch-Ind20,r                  0.56932930 [mEh]       0.35725953 [kcal/mol]       1.49477386 [kJ/mol]
      Exch-Ind22                    0.05863757 [mEh]       0.03679563 [kcal/mol]       0.15395292 [kJ/mol]
      delta HF,r (2)               -0.35531423 [mEh]      -0.22296305 [kcal/mol]      -0.93287739 [kJ/mol]

    Dispersion                     -3.06196811 [mEh]      -1.92141400 [kcal/mol]      -8.03919616 [kJ/mol]
      Disp20                       -2.99407904 [mEh]      -1.87881297 [kcal/mol]      -7.86095345 [kJ/mol]
      Disp21                        0.18548039 [mEh]       0.11639070 [kcal/mol]       0.48697869 [kJ/mol]
      Disp22 (SDQ)                  0.03403362 [mEh]       0.02135642 [kcal/mol]       0.08935527 [kJ/mol]
      Disp22 (T)                   -0.48340801 [mEh]      -0.30334311 [kcal/mol]      -1.26918755 [kJ/mol]
      Est. Disp22 (T)              -0.53919352 [mEh]      -0.33834904 [kcal/mol]      -1.41565239 [kJ/mol]
      Exch-Disp20                   0.25179045 [mEh]       0.15800089 [kcal/mol]       0.66107573 [kJ/mol]

  Total HF                         -5.74697812 [mEh]      -3.60628321 [kcal/mol]     -15.08868897 [kJ/mol]
  Total SAPT0                      -8.48926672 [mEh]      -5.32709529 [kcal/mol]     -22.28856669 [kJ/mol]
  Total SAPT2                      -8.11829946 [mEh]      -5.09430982 [kcal/mol]     -21.31459228 [kJ/mol]
  Total SAPT2+                     -8.43797896 [mEh]      -5.29491174 [kcal/mol]     -22.15391072 [kJ/mol]

  Special recipe for scaled SAPT0 (see Manual):
    Electrostatics sSAPT0          -6.78046628 [mEh]      -4.25480682 [kcal/mol]     -17.80211175 [kJ/mol]
    Exchange sSAPT0                 2.25237313 [mEh]       1.41338548 [kcal/mol]       5.91360485 [kJ/mol]
    Induction sSAPT0               -1.21562163 [mEh]      -0.76281409 [kcal/mol]      -3.19161416 [kJ/mol]
    Dispersion sSAPT0              -2.74084536 [mEh]      -1.71990643 [kcal/mol]      -7.19608850 [kJ/mol]
  Total sSAPT0                     -8.48456014 [mEh]      -5.32414187 [kcal/mol]     -22.27620957 [kJ/mol]
  --------------------------------------------------------------------------------------------------------

*** Psi4 exiting successfully. Buy a developer a beer!
