                               Psi4 1.4a2.dev224

  ==> Input File <==

--------------------------------------------------------------------------
#Generated by lconvert.py for sapt job

memory 50 GB

molecule  {
0 1
  C      -0.778570   -0.463320    2.490390
  H       0.224750   -0.050950    2.413480
  H      -0.722480   -1.487090    2.854590
  H      -1.351910    0.110820    3.213680
  C      -1.520500   -0.456630    1.172330
  O      -2.700840   -0.783590    1.089600
  N      -0.791950   -0.069640    0.100590
  H       0.194110    0.145710    0.202920
  C      -1.397800   -0.056080   -1.211320
  H      -2.314930    0.528890   -1.199710
  H      -0.698800    0.387260   -1.915370
  H      -1.652980   -1.061530   -1.545430
--
0 1
  N       4.110580    0.354280    0.355420
  H       4.514250    0.894200    1.110620
  H       4.528580    0.721660   -0.490220
  C       4.482880   -1.056900    0.509170
  H       4.056600   -1.627930   -0.312200
  H       5.558280   -1.243590    0.534960
  H       4.048410   -1.441310    1.429010
units angstrom
no_reorient
symmetry c1
}

set {
scf_type DF
basis aug-cc-pvtz
freeze_core True
guess SAD
}
energy('sapt2+')
--------------------------------------------------------------------------

  //              Dimer HF             //
    Molecular point group: c1
  Charge       = 0
  Multiplicity = 1
  Basis Set: AUG-CC-PVTZ
    Blend: AUG-CC-PVTZ
  Basis Set: (AUG-CC-PVTZ AUX)
    Blend: AUG-CC-PVTZ-JKFIT
  @DF-RHF Final Energy:  -342.36038602017737
    Total Energy =                       -342.3603860201773728
  //            Monomer A HF           //
    Molecular point group: c1
  Multiplicity = 1
  Basis Set: AUG-CC-PVTZ
    Blend: AUG-CC-PVTZ
  Basis Set: (AUG-CC-PVTZ AUX)
    Blend: AUG-CC-PVTZ-JKFIT
  @DF-RHF Final Energy:  -247.10257750976677
    Total Energy =                       -247.1025775097667747
  //            Monomer B HF           //
    Molecular point group: c1

    Geometry (in Angstrom), charge = 0, multiplicity = 1:

       Center              X                  Y                   Z               Mass
    ------------   -----------------  -----------------  -----------------  -----------------
      Gh(C)          -1.059232193684    -0.106925142603     1.859369652533    12.000000000000
      Gh(H)          -0.055912193684     0.305444857397     1.782459652533     1.007825032230
      Gh(H)          -1.003142193684    -1.130695142603     2.223569652533     1.007825032230
      Gh(H)          -1.632572193684     0.467214857397     2.582659652533     1.007825032230
      Gh(C)          -1.801162193684    -0.100235142603     0.541309652533    12.000000000000
      Gh(O)          -2.981502193684    -0.427195142603     0.458579652533    15.994914619570
      Gh(N)          -1.072612193684     0.286754857397    -0.530430347467    14.003074004430
      Gh(H)          -0.086552193684     0.502104857397    -0.428100347467     1.007825032230
      Gh(C)          -1.678462193684     0.300314857397    -1.842340347467    12.000000000000
      Gh(H)          -2.595592193684     0.885284857397    -1.830730347467     1.007825032230
      Gh(H)          -0.979462193684     0.743654857397    -2.546390347467     1.007825032230
      Gh(H)          -1.933642193684    -0.705135142603    -2.176450347467     1.007825032230
         N            3.829917806316     0.710674857397    -0.275600347467    14.003074004430
         H            4.233587806316     1.250594857397     0.479599652533     1.007825032230
         H            4.247917806316     1.078054857397    -1.121240347467     1.007825032230
         C            4.202217806316    -0.700505142603    -0.121850347467    12.000000000000
         H            3.775937806316    -1.271535142603    -0.943220347467     1.007825032230
         H            5.277617806316    -0.887195142603    -0.096060347467     1.007825032230
         H            3.767747806316    -1.084915142603     0.797989652533     1.007825032230

  Charge       = 0
  Multiplicity = 1
  Basis Set: AUG-CC-PVTZ
    Blend: AUG-CC-PVTZ
  Basis Set: (AUG-CC-PVTZ AUX)
    Blend: AUG-CC-PVTZ-JKFIT

    Orbital Energies [Eh]
    ---------------------

    Doubly Occupied:

       1A    -15.540267     2A    -11.240468     3A     -1.170014
       4A     -0.896730     5A     -0.660784     6A     -0.604126
       7A     -0.555447     8A     -0.517088     9A     -0.394156

  @DF-RHF Final Energy:   -95.25540642798242

   => Energetics <=

    Nuclear Repulsion Energy =             42.0379985165083596
    One-Electron Energy =                -211.4286484392422096
    Two-Electron Energy =                  74.1352434947514212
    Total Energy =                        -95.2554064279824217

  Dipole Moment: [D]
     X:     1.4554      Y:    -0.1057      Z:     0.0240     Total:     1.4595

    SAPT Results
  --------------------------------------------------------------------------------------------------------
    Electrostatics                 -2.16582153 [mEh]      -1.35907353 [kcal/mol]      -5.68636364 [kJ/mol]
      Elst10,r                     -2.29399192 [mEh]      -1.43950166 [kcal/mol]      -6.02287495 [kJ/mol]
      Elst12,r                      0.12817039 [mEh]       0.08042814 [kcal/mol]       0.33651132 [kJ/mol]

    Exchange                        0.05367509 [mEh]       0.03368163 [kcal/mol]       0.14092394 [kJ/mol]
      Exch10                        0.04028700 [mEh]       0.02528047 [kcal/mol]       0.10577350 [kJ/mol]
      Exch10(S^2)                   0.04028484 [mEh]       0.02527912 [kcal/mol]       0.10576784 [kJ/mol]
      Exch11(S^2)                  -0.00051775 [mEh]      -0.00032490 [kcal/mol]      -0.00135936 [kJ/mol]
      Exch12(S^2)                   0.01390585 [mEh]       0.00872605 [kcal/mol]       0.03650980 [kJ/mol]

    Induction                      -0.15077118 [mEh]      -0.09461034 [kcal/mol]      -0.39584967 [kJ/mol]
      Ind20,r                      -0.14519512 [mEh]      -0.09111132 [kcal/mol]      -0.38120975 [kJ/mol]
      Ind22                        -0.00255464 [mEh]      -0.00160306 [kcal/mol]      -0.00670722 [kJ/mol]
      Exch-Ind20,r                  0.00914906 [mEh]       0.00574112 [kcal/mol]       0.02402086 [kJ/mol]
      Exch-Ind22                    0.00016097 [mEh]       0.00010101 [kcal/mol]       0.00042264 [kJ/mol]
      delta HF,r (2)               -0.01233145 [mEh]      -0.00773810 [kcal/mol]      -0.03237621 [kJ/mol]

    Dispersion                     -0.55634835 [mEh]      -0.34911386 [kcal/mol]      -1.46069240 [kJ/mol]
      Disp20                       -0.52435622 [mEh]      -0.32903850 [kcal/mol]      -1.37669708 [kJ/mol]
      Disp21                        0.05229873 [mEh]       0.03281795 [kcal/mol]       0.13731029 [kJ/mol]
      Disp22 (SDQ)                  0.00715689 [mEh]       0.00449102 [kcal/mol]       0.01879042 [kJ/mol]
      Disp22 (T)                   -0.09215666 [mEh]      -0.05782918 [kcal/mol]      -0.24195728 [kJ/mol]
      Est. Disp22 (T)              -0.09783341 [mEh]      -0.06139139 [kcal/mol]      -0.25686159 [kJ/mol]
      Exch-Disp20                   0.00638566 [mEh]       0.00400706 [kcal/mol]       0.01676555 [kJ/mol]

  Total HF                         -2.40208243 [mEh]      -1.50732948 [kcal/mol]      -6.30666655 [kJ/mol]
  Total SAPT0                      -2.92005299 [mEh]      -1.83236092 [kcal/mol]      -7.66659807 [kJ/mol]
  Total SAPT2                      -2.78088817 [mEh]      -1.74503367 [kcal/mol]      -7.30122089 [kJ/mol]
  Total SAPT2+                     -2.81926596 [mEh]      -1.76911610 [kcal/mol]      -7.40198177 [kJ/mol]

  Special recipe for scaled SAPT0 (see Manual):
    Electrostatics sSAPT0          -2.29399192 [mEh]      -1.43950166 [kcal/mol]      -6.02287495 [kJ/mol]
    Exchange sSAPT0                 0.04028700 [mEh]       0.02528047 [kcal/mol]       0.10577350 [kJ/mol]
    Induction sSAPT0               -0.14837604 [mEh]      -0.09310737 [kcal/mol]      -0.38956123 [kJ/mol]
    Dispersion sSAPT0              -0.51796954 [mEh]      -0.32503079 [kcal/mol]      -1.35992883 [kJ/mol]
  Total sSAPT0                     -2.92005049 [mEh]      -1.83235935 [kcal/mol]      -7.66659152 [kJ/mol]
  --------------------------------------------------------------------------------------------------------

*** Psi4 exiting successfully. Buy a developer a beer!
