                               Psi4 1.4a2.dev224

  ==> Input File <==

--------------------------------------------------------------------------
#Generated by lconvert.py for sapt job

memory 80 GB

molecule  {
0 1
  C      -0.701500   -0.290630    2.406880
  H      -1.183300    0.395650    3.098870
  H       0.349560   -0.030320    2.307830
  H      -0.794060   -1.291600    2.824040
  C      -1.448550   -0.244880    1.091810
  O      -2.660450   -0.428480    1.034350
  N      -0.670060    0.005920    0.009780
  H       0.326670    0.122560    0.141590
  C      -1.227060    0.089790   -1.319970
  H      -2.292020   -0.106500   -1.240880
  H      -1.077800    1.079940   -1.748540
  H      -0.776630   -0.648000   -1.983370
--
0 1
  C       3.827750   -2.460850    0.826130
  H       4.385980   -3.370850    0.620230
  H       2.899060   -2.467380    0.261810
  H       3.568530   -2.437400    1.883080
  C       4.595390   -1.206440    0.489900
  O       4.050200   -0.105000    0.432930
  N       5.922150   -1.375250    0.276150
  H       6.298470   -2.302500    0.352910
  C       6.809380   -0.268790   -0.012800
  H       6.195190    0.622020   -0.092620
  H       7.536800   -0.129320    0.784600
  H       7.334370   -0.428770   -0.951940
units angstrom
no_reorient
symmetry c1
}

set {
scf_type DF
basis aug-cc-pvtz
freeze_core True
guess SAD
}
energy('sapt2+')
--------------------------------------------------------------------------

  //              Dimer HF             //
    Molecular point group: c1
  Charge       = 0
  Multiplicity = 1
  Basis Set: AUG-CC-PVTZ
    Blend: AUG-CC-PVTZ
  Basis Set: (AUG-CC-PVTZ AUX)
    Blend: AUG-CC-PVTZ-JKFIT
  @DF-RHF Final Energy:  -494.20789588779286
    Total Energy =                       -494.2078958877928017
  //            Monomer A HF           //
    Molecular point group: c1
  Multiplicity = 1
  Basis Set: AUG-CC-PVTZ
    Blend: AUG-CC-PVTZ
  Basis Set: (AUG-CC-PVTZ AUX)
    Blend: AUG-CC-PVTZ-JKFIT
  @DF-RHF Final Energy:  -247.10213809347906
    Total Energy =                       -247.1021380934790841
  //            Monomer B HF           //
    Molecular point group: c1

    Geometry (in Angstrom), charge = 0, multiplicity = 1:

       Center              X                  Y                   Z               Mass
    ------------   -----------------  -----------------  -----------------  -----------------
      Gh(C)          -2.556778951671     0.334725414327     1.889699750471    12.000000000000
      Gh(H)          -3.038578951671     1.021005414327     2.581689750471     1.007825032230
      Gh(H)          -1.505718951671     0.595035414327     1.790649750471     1.007825032230
      Gh(H)          -2.649338951671    -0.666244585673     2.306859750471     1.007825032230
      Gh(C)          -3.303828951671     0.380475414327     0.574629750471    12.000000000000
      Gh(O)          -4.515728951671     0.196875414327     0.517169750471    15.994914619570
      Gh(N)          -2.525338951671     0.631275414327    -0.507400249529    14.003074004430
      Gh(H)          -1.528608951671     0.747915414327    -0.375590249529     1.007825032230
      Gh(C)          -3.082338951671     0.715145414327    -1.837150249529    12.000000000000
      Gh(H)          -4.147298951671     0.518855414327    -1.758060249529     1.007825032230
      Gh(H)          -2.933078951671     1.705295414327    -2.265720249529     1.007825032230
      Gh(H)          -2.631908951671    -0.022644585673    -2.500550249529     1.007825032230
         C            1.972471048329    -1.835494585673     0.308949750471    12.000000000000
         H            2.530701048329    -2.745494585673     0.103049750471     1.007825032230
         H            1.043781048329    -1.842024585673    -0.255370249529     1.007825032230
         H            1.713251048329    -1.812044585673     1.365899750471     1.007825032230
         C            2.740111048329    -0.581084585673    -0.027280249529    12.000000000000
         O            2.194921048329     0.520355414327    -0.084250249529    15.994914619570
         N            4.066871048329    -0.749894585673    -0.241030249529    14.003074004430
         H            4.443191048329    -1.677144585673    -0.164270249529     1.007825032230
         C            4.954101048329     0.356565414327    -0.529980249529    12.000000000000
         H            4.339911048329     1.247375414327    -0.609800249529     1.007825032230
         H            5.681521048329     0.496035414327     0.267419750471     1.007825032230
         H            5.479091048329     0.196585414327    -1.469120249529     1.007825032230

  Charge       = 0
  Multiplicity = 1
  Basis Set: AUG-CC-PVTZ
    Blend: AUG-CC-PVTZ
  Basis Set: (AUG-CC-PVTZ AUX)
    Blend: AUG-CC-PVTZ-JKFIT

    Orbital Energies [Eh]
    ---------------------

    Doubly Occupied:

       1A    -20.508625     2A    -15.587384     3A    -11.346877
       4A    -11.256363     5A    -11.235372     6A     -1.369923
       7A     -1.230961     8A     -1.019610     9A     -0.933608
      10A     -0.790109    11A     -0.690923    12A     -0.651693
      13A     -0.633789    14A     -0.587588    15A     -0.577929
      16A     -0.555775    17A     -0.544767    18A     -0.503367
      19A     -0.419456    20A     -0.391120

  @DF-RHF Final Energy:  -247.10250005588986

   => Energetics <=

    Nuclear Repulsion Energy =            180.5432946462478583
    One-Electron Energy =                -693.6211153582527231
    Two-Electron Energy =                 265.9753206561149455
    Total Energy =                       -247.1025000558898910

  Dipole Moment: [D]
     X:     2.5553      Y:    -3.3329      Z:     0.0859     Total:     4.2006

    SAPT Results
  --------------------------------------------------------------------------------------------------------
    Electrostatics                 -2.70082327 [mEh]      -1.69479219 [kcal/mol]      -7.09101051 [kJ/mol]
      Elst10,r                     -3.07627407 [mEh]      -1.93039112 [kcal/mol]      -8.07675646 [kJ/mol]
      Elst12,r                      0.37545081 [mEh]       0.23559894 [kcal/mol]       0.98574596 [kJ/mol]

    Exchange                        0.07126086 [mEh]       0.04471686 [kcal/mol]       0.18709535 [kJ/mol]
      Exch10                        0.05035619 [mEh]       0.03159898 [kcal/mol]       0.13221015 [kJ/mol]
      Exch10(S^2)                   0.05035347 [mEh]       0.03159728 [kcal/mol]       0.13220303 [kJ/mol]
      Exch11(S^2)                  -0.00091204 [mEh]      -0.00057231 [kcal/mol]      -0.00239455 [kJ/mol]
      Exch12(S^2)                   0.02181671 [mEh]       0.01369019 [kcal/mol]       0.05727975 [kJ/mol]

    Induction                      -0.22042706 [mEh]      -0.13832007 [kcal/mol]      -0.57873116 [kJ/mol]
      Ind20,r                      -0.22295604 [mEh]      -0.13990703 [kcal/mol]      -0.58537100 [kJ/mol]
      Ind22                         0.01179777 [mEh]       0.00740321 [kcal/mol]       0.03097505 [kJ/mol]
      Exch-Ind20,r                  0.00764040 [mEh]       0.00479442 [kcal/mol]       0.02005986 [kJ/mol]
      Exch-Ind22                   -0.00040429 [mEh]      -0.00025370 [kcal/mol]      -0.00106147 [kJ/mol]
      delta HF,r (2)               -0.01650490 [mEh]      -0.01035698 [kcal/mol]      -0.04333361 [kJ/mol]

    Dispersion                     -0.86053416 [mEh]      -0.53999334 [kcal/mol]      -2.25933211 [kJ/mol]
      Disp20                       -0.80123548 [mEh]      -0.50278285 [kcal/mol]      -2.10364346 [kJ/mol]
      Disp21                        0.10069647 [mEh]       0.06318799 [kcal/mol]       0.26437854 [kJ/mol]
      Disp22 (SDQ)                 -0.00134744 [mEh]      -0.00084553 [kcal/mol]      -0.00353769 [kJ/mol]
      Disp22 (T)                   -0.15959922 [mEh]      -0.10015002 [kcal/mol]      -0.41902770 [kJ/mol]
      Est. Disp22 (T)              -0.16672465 [mEh]      -0.10462130 [kcal/mol]      -0.43773552 [kJ/mol]
      Exch-Disp20                   0.00807694 [mEh]       0.00506836 [kcal/mol]       0.02120601 [kJ/mol]

  Total HF                         -3.25773842 [mEh]      -2.04426172 [kcal/mol]      -8.55319105 [kJ/mol]
  Total SAPT0                      -4.05089696 [mEh]      -2.54197622 [kcal/mol]     -10.63562850 [kJ/mol]
  Total SAPT2                      -3.64314800 [mEh]      -2.28610989 [kcal/mol]      -9.56508376 [kJ/mol]
  Total SAPT2+                     -3.71052362 [mEh]      -2.32838873 [kcal/mol]      -9.74197843 [kJ/mol]

  Special recipe for scaled SAPT0 (see Manual):
    Electrostatics sSAPT0          -3.07627407 [mEh]      -1.93039112 [kcal/mol]      -8.07675646 [kJ/mol]
    Exchange sSAPT0                 0.05035619 [mEh]       0.03159898 [kcal/mol]       0.13221015 [kJ/mol]
    Induction sSAPT0               -0.23181930 [mEh]      -0.14546881 [kcal/mol]      -0.60864150 [kJ/mol]
    Dispersion sSAPT0              -0.79315723 [mEh]      -0.49771367 [kcal/mol]      -2.08243401 [kJ/mol]
  Total sSAPT0                     -4.05089442 [mEh]      -2.54197462 [kcal/mol]     -10.63562182 [kJ/mol]
  --------------------------------------------------------------------------------------------------------

*** Psi4 exiting successfully. Buy a developer a beer!
