                               Psi4 1.4a2.dev224

  ==> Input File <==

--------------------------------------------------------------------------
#Generated by lconvert.py for sapt job

memory 80 GB

molecule  {
0 1
  C      -0.701500   -0.290630    2.406880
  H      -1.183300    0.395650    3.098870
  H       0.349560   -0.030320    2.307830
  H      -0.794060   -1.291600    2.824040
  C      -1.448550   -0.244880    1.091810
  O      -2.660450   -0.428480    1.034350
  N      -0.670060    0.005920    0.009780
  H       0.326670    0.122560    0.141590
  C      -1.227060    0.089790   -1.319970
  H      -2.292020   -0.106500   -1.240880
  H      -1.077800    1.079940   -1.748540
  H      -0.776630   -0.648000   -1.983370
--
0 1
  C       2.651930   -2.388990    0.734140
  H       3.210160   -3.298990    0.528230
  H       1.723240   -2.395520    0.169810
  H       2.392710   -2.365540    1.791080
  C       3.419570   -1.134580    0.397900
  O       2.874380   -0.033140    0.340930
  N       4.746320   -1.303390    0.184150
  H       5.122650   -2.230640    0.260910
  C       5.633560   -0.196920   -0.104800
  H       5.019370    0.693890   -0.184620
  H       6.360980   -0.057460    0.692610
  H       6.158550   -0.356910   -1.043940
units angstrom
no_reorient
symmetry c1
}

set {
scf_type DF
basis aug-cc-pvtz
freeze_core True
guess SAD
}
energy('sapt2+')
--------------------------------------------------------------------------

  //              Dimer HF             //
    Molecular point group: c1
  Charge       = 0
  Multiplicity = 1
  Basis Set: AUG-CC-PVTZ
    Blend: AUG-CC-PVTZ
  Basis Set: (AUG-CC-PVTZ AUX)
    Blend: AUG-CC-PVTZ-JKFIT
  @DF-RHF Final Energy:  -494.21194211546555
    Total Energy =                       -494.2119421154656038
  //            Monomer A HF           //
    Molecular point group: c1
  Multiplicity = 1
  Basis Set: AUG-CC-PVTZ
    Blend: AUG-CC-PVTZ
  Basis Set: (AUG-CC-PVTZ AUX)
    Blend: AUG-CC-PVTZ-JKFIT
  @DF-RHF Final Energy:  -247.10219525646670
    Total Energy =                       -247.1021952564667004
  //            Monomer B HF           //
    Molecular point group: c1

    Geometry (in Angstrom), charge = 0, multiplicity = 1:

       Center              X                  Y                   Z               Mass
    ------------   -----------------  -----------------  -----------------  -----------------
      Gh(C)          -1.968867993249     0.298794524023     1.935698860168    12.000000000000
      Gh(H)          -2.450667993249     0.985074524023     2.627688860168     1.007825032230
      Gh(H)          -0.917807993249     0.559104524023     1.836648860168     1.007825032230
      Gh(H)          -2.061427993249    -0.702175475977     2.352858860168     1.007825032230
      Gh(C)          -2.715917993249     0.344544524023     0.620628860168    12.000000000000
      Gh(O)          -3.927817993249     0.160944524023     0.563168860168    15.994914619570
      Gh(N)          -1.937427993249     0.595344524023    -0.461401139832    14.003074004430
      Gh(H)          -0.940697993249     0.711984524023    -0.329591139832     1.007825032230
      Gh(C)          -2.494427993249     0.679214524023    -1.791151139832    12.000000000000
      Gh(H)          -3.559387993249     0.482924524023    -1.712061139832     1.007825032230
      Gh(H)          -2.345167993249     1.669364524023    -2.219721139832     1.007825032230
      Gh(H)          -2.043997993249    -0.058575475977    -2.454551139832     1.007825032230
         C            1.384562006751    -1.799565475977     0.262958860168    12.000000000000
         H            1.942792006751    -2.709565475977     0.057048860168     1.007825032230
         H            0.455872006751    -1.806095475977    -0.301371139832     1.007825032230
         H            1.125342006751    -1.776115475977     1.319898860168     1.007825032230
         C            2.152202006751    -0.545155475977    -0.073281139832    12.000000000000
         O            1.607012006751     0.556284524023    -0.130251139832    15.994914619570
         N            3.478952006751    -0.713965475977    -0.287031139832    14.003074004430
         H            3.855282006751    -1.641215475977    -0.210271139832     1.007825032230
         C            4.366192006751     0.392504524023    -0.575981139832    12.000000000000
         H            3.752002006751     1.283314524023    -0.655801139832     1.007825032230
         H            5.093612006751     0.531964524023     0.221428860168     1.007825032230
         H            4.891182006751     0.232514524023    -1.515121139832     1.007825032230

  Charge       = 0
  Multiplicity = 1
  Basis Set: AUG-CC-PVTZ
    Blend: AUG-CC-PVTZ
  Basis Set: (AUG-CC-PVTZ AUX)
    Blend: AUG-CC-PVTZ-JKFIT

    Orbital Energies [Eh]
    ---------------------

    Doubly Occupied:

       1A    -20.508596     2A    -15.587377     3A    -11.346866
       4A    -11.256369     5A    -11.235370     6A     -1.369906
       7A     -1.230954     8A     -1.019601     9A     -0.933604
      10A     -0.790103    11A     -0.690915    12A     -0.651683
      13A     -0.633787    14A     -0.587585    15A     -0.577919
      16A     -0.555766    17A     -0.544767    18A     -0.503362
      19A     -0.419447    20A     -0.391115

  @DF-RHF Final Energy:  -247.10256195349541

   => Energetics <=

    Nuclear Repulsion Energy =            180.5432255828725374
    One-Electron Energy =                -693.6213903221861301
    Two-Electron Energy =                 265.9756027858181824
    Total Energy =                       -247.1025619534954103

  Dipole Moment: [D]
     X:     2.5551      Y:    -3.3319      Z:     0.0859     Total:     4.1997

    SAPT Results
  --------------------------------------------------------------------------------------------------------
    Electrostatics                 -7.41524571 [mEh]      -4.65313693 [kcal/mol]     -19.46872492 [kJ/mol]
      Elst10,r                     -8.02757895 [mEh]      -5.03738184 [kcal/mol]     -21.07640562 [kJ/mol]
      Elst12,r                      0.61233324 [mEh]       0.38424491 [kcal/mol]       1.60768071 [kJ/mol]

    Exchange                        2.84225676 [mEh]       1.78354304 [kcal/mol]       7.46234409 [kJ/mol]
      Exch10                        2.27227402 [mEh]       1.42587348 [kcal/mol]       5.96585463 [kJ/mol]
      Exch10(S^2)                   2.26903817 [mEh]       1.42384295 [kcal/mol]       5.95735889 [kJ/mol]
      Exch11(S^2)                  -0.00789137 [mEh]      -0.00495191 [kcal/mol]      -0.02071878 [kJ/mol]
      Exch12(S^2)                   0.57787410 [mEh]       0.36262147 [kcal/mol]       1.51720824 [kJ/mol]

    Induction                      -1.51009070 [mEh]      -0.94759622 [kcal/mol]      -3.96474259 [kJ/mol]
      Ind20,r                      -1.53912598 [mEh]      -0.96581613 [kcal/mol]      -4.04097469 [kJ/mol]
      Ind22                        -0.11325580 [mEh]      -0.07106909 [kcal/mol]      -0.29735307 [kJ/mol]
      Exch-Ind20,r                  0.44527970 [mEh]       0.27941723 [kcal/mol]       1.16908168 [kJ/mol]
      Exch-Ind22                    0.03276568 [mEh]       0.02056077 [kcal/mol]       0.08602628 [kJ/mol]
      delta HF,r (2)               -0.33575430 [mEh]      -0.21068901 [kcal/mol]      -0.88152280 [kJ/mol]

    Dispersion                     -3.99469026 [mEh]      -2.50670599 [kcal/mol]     -10.48805784 [kJ/mol]
      Disp20                       -3.81829711 [mEh]      -2.39601761 [kcal/mol]     -10.02493768 [kJ/mol]
      Disp21                        0.35443918 [mEh]       0.22241394 [kcal/mol]       0.93057994 [kJ/mol]
      Disp22 (SDQ)                 -0.02234474 [mEh]      -0.01402153 [kcal/mol]      -0.05866609 [kJ/mol]
      Disp22 (T)                   -0.70679635 [mEh]      -0.44352141 [kcal/mol]      -1.85569357 [kJ/mol]
      Est. Disp22 (T)              -0.77026912 [mEh]      -0.48335117 [kcal/mol]      -2.02234128 [kJ/mol]
      Exch-Disp20                   0.26178152 [mEh]       0.16427038 [kcal/mol]       0.68730728 [kJ/mol]

  Total HF                         -7.18490550 [mEh]      -4.50859627 [kcal/mol]     -18.86396680 [kJ/mol]
  Total SAPT0                     -10.74142110 [mEh]      -6.74034350 [kcal/mol]     -28.20159721 [kJ/mol]
  Total SAPT2                      -9.63959524 [mEh]      -6.04893734 [kcal/mol]     -25.30875383 [kJ/mol]
  Total SAPT2+                    -10.07776991 [mEh]      -6.32389610 [kcal/mol]     -26.45918127 [kJ/mol]

  Special recipe for scaled SAPT0 (see Manual):
    Electrostatics sSAPT0          -8.02757895 [mEh]      -5.03738184 [kcal/mol]     -21.07640562 [kJ/mol]
    Exchange sSAPT0                 2.27227402 [mEh]       1.42587348 [kcal/mol]       5.96585463 [kJ/mol]
    Induction sSAPT0               -1.42769283 [mEh]      -0.89589078 [kcal/mol]      -3.74840702 [kJ/mol]
    Dispersion sSAPT0              -3.55539402 [mEh]      -2.23104343 [kcal/mol]      -9.33468572 [kJ/mol]
  Total sSAPT0                    -10.73839178 [mEh]      -6.73844258 [kcal/mol]     -28.19364373 [kJ/mol]
  --------------------------------------------------------------------------------------------------------

*** Psi4 exiting successfully. Buy a developer a beer!
