                               Psi4 1.4a2.dev224

  ==> Input File <==

--------------------------------------------------------------------------
#Generated by lconvert.py for sapt job

memory 80 GB

molecule  {
0 1
  C      -0.701500   -0.290630    2.406880
  H      -1.183300    0.395650    3.098870
  H       0.349560   -0.030320    2.307830
  H      -0.794060   -1.291600    2.824040
  C      -1.448550   -0.244880    1.091810
  O      -2.660450   -0.428480    1.034350
  N      -0.670060    0.005920    0.009780
  H       0.326670    0.122560    0.141590
  C      -1.227060    0.089790   -1.319970
  H      -2.292020   -0.106500   -1.240880
  H      -1.077800    1.079940   -1.748540
  H      -0.776630   -0.648000   -1.983370
--
0 1
  C       3.239840   -2.424920    0.780140
  H       3.798070   -3.334920    0.574230
  H       2.311150   -2.431450    0.215810
  H       2.980620   -2.401470    1.837080
  C       4.007480   -1.170510    0.443900
  O       3.462290   -0.069070    0.386930
  N       5.334230   -1.339320    0.230150
  H       5.710560   -2.266570    0.306910
  C       6.221470   -0.232860   -0.058800
  H       5.607280    0.657950   -0.138620
  H       6.948890   -0.093390    0.738610
  H       6.746460   -0.392840   -0.997940
units angstrom
no_reorient
symmetry c1
}

set {
scf_type DF
basis aug-cc-pvtz
freeze_core True
guess SAD
}
energy('sapt2+')
--------------------------------------------------------------------------

  //              Dimer HF             //
    Molecular point group: c1
  Charge       = 0
  Multiplicity = 1
  Basis Set: AUG-CC-PVTZ
    Blend: AUG-CC-PVTZ
  Basis Set: (AUG-CC-PVTZ AUX)
    Blend: AUG-CC-PVTZ-JKFIT
  @DF-RHF Final Energy:  -494.20953077056504
    Total Energy =                       -494.2095307705650384
  //            Monomer A HF           //
    Molecular point group: c1
  Multiplicity = 1
  Basis Set: AUG-CC-PVTZ
    Blend: AUG-CC-PVTZ
  Basis Set: (AUG-CC-PVTZ AUX)
    Blend: AUG-CC-PVTZ-JKFIT
  @DF-RHF Final Energy:  -247.10215510341430
    Total Energy =                       -247.1021551034143044
  //            Monomer B HF           //
    Molecular point group: c1

    Geometry (in Angstrom), charge = 0, multiplicity = 1:

       Center              X                  Y                   Z               Mass
    ------------   -----------------  -----------------  -----------------  -----------------
      Gh(C)          -2.262822993249     0.316760414327     1.912698860168    12.000000000000
      Gh(H)          -2.744622993249     1.003040414327     2.604688860168     1.007825032230
      Gh(H)          -1.211762993249     0.577070414327     1.813648860168     1.007825032230
      Gh(H)          -2.355382993249    -0.684209585673     2.329858860168     1.007825032230
      Gh(C)          -3.009872993249     0.362510414327     0.597628860168    12.000000000000
      Gh(O)          -4.221772993249     0.178910414327     0.540168860168    15.994914619570
      Gh(N)          -2.231382993249     0.613310414327    -0.484401139832    14.003074004430
      Gh(H)          -1.234652993249     0.729950414327    -0.352591139832     1.007825032230
      Gh(C)          -2.788382993249     0.697180414327    -1.814151139832    12.000000000000
      Gh(H)          -3.853342993249     0.500890414327    -1.735061139832     1.007825032230
      Gh(H)          -2.639122993249     1.687330414327    -2.242721139832     1.007825032230
      Gh(H)          -2.337952993249    -0.040609585673    -2.477551139832     1.007825032230
         C            1.678517006751    -1.817529585673     0.285958860168    12.000000000000
         H            2.236747006751    -2.727529585673     0.080048860168     1.007825032230
         H            0.749827006751    -1.824059585673    -0.278371139832     1.007825032230
         H            1.419297006751    -1.794079585673     1.342898860168     1.007825032230
         C            2.446157006751    -0.563119585673    -0.050281139832    12.000000000000
         O            1.900967006751     0.538320414327    -0.107251139832    15.994914619570
         N            3.772907006751    -0.731929585673    -0.264031139832    14.003074004430
         H            4.149237006751    -1.659179585673    -0.187271139832     1.007825032230
         C            4.660147006751     0.374530414327    -0.552981139832    12.000000000000
         H            4.045957006751     1.265340414327    -0.632801139832     1.007825032230
         H            5.387567006751     0.514000414327     0.244428860168     1.007825032230
         H            5.185137006751     0.214550414327    -1.492121139832     1.007825032230

  Charge       = 0
  Multiplicity = 1
  Basis Set: AUG-CC-PVTZ
    Blend: AUG-CC-PVTZ
  Basis Set: (AUG-CC-PVTZ AUX)
    Blend: AUG-CC-PVTZ-JKFIT

    Orbital Energies [Eh]
    ---------------------

    Doubly Occupied:

       1A    -20.508618     2A    -15.587384     3A    -11.346870
       4A    -11.256366     5A    -11.235371     6A     -1.369918
       7A     -1.230960     8A     -1.019607     9A     -0.933607
      10A     -0.790108    11A     -0.690920    12A     -0.651689
      13A     -0.633789    14A     -0.587588    15A     -0.577925
      16A     -0.555771    17A     -0.544767    18A     -0.503366
      19A     -0.419453    20A     -0.391119

  @DF-RHF Final Energy:  -247.10251861406596

   => Energetics <=

    Nuclear Repulsion Energy =            180.5433540708422981
    One-Electron Energy =                -693.6213594146477135
    Two-Electron Energy =                 265.9754867297394867
    Total Energy =                       -247.1025186140659571

  Dipole Moment: [D]
     X:     2.5553      Y:    -3.3325      Z:     0.0859     Total:     4.2003

    SAPT Results
  --------------------------------------------------------------------------------------------------------
    Electrostatics                 -4.17263872 [mEh]      -2.61837033 [kcal/mol]     -10.95526146 [kJ/mol]
      Elst10,r                     -4.67715256 [mEh]      -2.93495754 [kcal/mol]     -12.27986237 [kJ/mol]
      Elst12,r                      0.50451384 [mEh]       0.31658722 [kcal/mol]       1.32460091 [kJ/mol]

    Exchange                        0.45020017 [mEh]       0.28250487 [kcal/mol]       1.18200038 [kJ/mol]
      Exch10                        0.33749170 [mEh]       0.21177924 [kcal/mol]       0.88608435 [kJ/mol]
      Exch10(S^2)                   0.33739916 [mEh]       0.21172117 [kcal/mol]       0.88584137 [kJ/mol]
      Exch11(S^2)                  -0.00385359 [mEh]      -0.00241816 [kcal/mol]      -0.01011760 [kJ/mol]
      Exch12(S^2)                   0.11656205 [mEh]       0.07314379 [kcal/mol]       0.30603363 [kJ/mol]

    Induction                      -0.51581388 [mEh]      -0.32367810 [kcal/mol]      -1.35426916 [kJ/mol]
      Ind20,r                      -0.50937453 [mEh]      -0.31963734 [kcal/mol]      -1.33736263 [kJ/mol]
      Ind22                         0.00177536 [mEh]       0.00111405 [kcal/mol]       0.00466120 [kJ/mol]
      Exch-Ind20,r                  0.05652618 [mEh]       0.03547072 [kcal/mol]       0.14840948 [kJ/mol]
      Exch-Ind22                   -0.00019701 [mEh]      -0.00012363 [kcal/mol]      -0.00051726 [kJ/mol]
      delta HF,r (2)               -0.06454388 [mEh]      -0.04050190 [kcal/mol]      -0.16945994 [kJ/mol]

    Dispersion                     -1.77780200 [mEh]      -1.11558759 [kcal/mol]      -4.66761850 [kJ/mol]
      Disp20                       -1.65571950 [mEh]      -1.03897967 [kcal/mol]      -4.34709094 [kJ/mol]
      Disp21                        0.17974670 [mEh]       0.11279276 [kcal/mol]       0.47192489 [kJ/mol]
      Disp22 (SDQ)                 -0.00703286 [mEh]      -0.00441318 [kcal/mol]      -0.01846476 [kJ/mol]
      Disp22 (T)                   -0.32124501 [mEh]      -0.20158429 [kcal/mol]      -0.84342865 [kJ/mol]
      Est. Disp22 (T)              -0.34158818 [mEh]      -0.21434982 [kcal/mol]      -0.89683964 [kJ/mol]
      Exch-Disp20                   0.04679184 [mEh]       0.02936232 [kcal/mol]       0.12285195 [kJ/mol]

  Total HF                         -4.85705308 [mEh]      -3.04784683 [kcal/mol]     -12.75219112 [kJ/mol]
  Total SAPT0                      -6.46598074 [mEh]      -4.05746417 [kcal/mol]     -16.97643010 [kJ/mol]
  Total SAPT2                      -5.84718010 [mEh]      -3.66916091 [kcal/mol]     -15.35176923 [kJ/mol]
  Total SAPT2+                     -6.01605443 [mEh]      -3.77513115 [kcal/mol]     -15.79514874 [kJ/mol]

  Special recipe for scaled SAPT0 (see Manual):
    Electrostatics sSAPT0          -4.67715256 [mEh]      -2.93495754 [kcal/mol]     -12.27986237 [kJ/mol]
    Exchange sSAPT0                 0.33749170 [mEh]       0.21177924 [kcal/mol]       0.88608435 [kJ/mol]
    Induction sSAPT0               -0.51734570 [mEh]      -0.32463933 [kcal/mol]      -1.35829094 [kJ/mol]
    Dispersion sSAPT0              -1.60888914 [mEh]      -1.00959318 [kcal/mol]      -4.22413787 [kJ/mol]
  Total sSAPT0                     -6.46589570 [mEh]      -4.05741081 [kcal/mol]     -16.97620683 [kJ/mol]
  --------------------------------------------------------------------------------------------------------

*** Psi4 exiting successfully. Buy a developer a beer!
