                               Psi4 1.4a2.dev224

  ==> Input File <==

--------------------------------------------------------------------------
#Generated by lconvert.py for sapt job

memory 50 GB

molecule  {
0 1
  C      -0.724300   -0.704940    2.283870
  H       0.335320   -0.629940    2.053180
  H      -0.951700   -1.711990    2.625650
  H      -0.969630   -0.022080    3.093760
  C      -1.614940   -0.387430    1.104070
  O      -2.837320   -0.415020    1.194130
  N      -0.953420   -0.076400   -0.040820
  H       0.053810   -0.075570   -0.036640
  C      -1.658120    0.250090   -1.258550
  H      -2.720370    0.176940   -1.046650
  H      -1.430300    1.262960   -1.588090
  H      -1.405630   -0.444330   -2.058580
--
0 1
  O       3.377640   -0.047730   -0.228770
  H       3.942610   -0.760690   -0.533970
  H       3.957390    0.716470   -0.204870
units angstrom
no_reorient
symmetry c1
}

set {
scf_type DF
basis aug-cc-pvtz
freeze_core True
guess SAD
}
energy('sapt2+')
--------------------------------------------------------------------------

  //              Dimer HF             //
    Molecular point group: c1
  Charge       = 0
  Multiplicity = 1
  Basis Set: AUG-CC-PVTZ
    Blend: AUG-CC-PVTZ
  Basis Set: (AUG-CC-PVTZ AUX)
    Blend: AUG-CC-PVTZ-JKFIT
  @DF-RHF Final Energy:  -323.16605111462087
    Total Energy =                       -323.1660511146208705
  //            Monomer A HF           //
    Molecular point group: c1
  Multiplicity = 1
  Basis Set: AUG-CC-PVTZ
    Blend: AUG-CC-PVTZ
  Basis Set: (AUG-CC-PVTZ AUX)
    Blend: AUG-CC-PVTZ-JKFIT
  @DF-RHF Final Energy:  -247.10247003223961
    Total Energy =                       -247.1024700322395802
  //            Monomer B HF           //
    Molecular point group: c1

    Geometry (in Angstrom), charge = 0, multiplicity = 1:

       Center              X                  Y                   Z               Mass
    ------------   -----------------  -----------------  -----------------  -----------------
      Gh(C)          -0.154818196826    -0.484448201982     1.814485196967    12.000000000000
      Gh(H)           0.904801803174    -0.409448201982     1.583795196967     1.007825032230
      Gh(H)          -0.382218196826    -1.491498201982     2.156265196967     1.007825032230
      Gh(H)          -0.400148196826     0.198411798018     2.624375196967     1.007825032230
      Gh(C)          -1.045458196826    -0.166938201982     0.634685196967    12.000000000000
      Gh(O)          -2.267838196826    -0.194528201982     0.724745196967    15.994914619570
      Gh(N)          -0.383938196826     0.144091798018    -0.510204803033    14.003074004430
      Gh(H)           0.623291803174     0.144921798018    -0.506024803033     1.007825032230
      Gh(C)          -1.088638196826     0.470581798018    -1.727934803033    12.000000000000
      Gh(H)          -2.150888196826     0.397431798018    -1.516034803033     1.007825032230
      Gh(H)          -0.860818196826     1.483451798018    -2.057474803033     1.007825032230
      Gh(H)          -0.836148196826    -0.223838201982    -2.527964803033     1.007825032230
         O            3.947121803174     0.172761798018    -0.698154803033    15.994914619570
         H            4.512091803174    -0.540198201982    -1.003354803033     1.007825032230
         H            4.526871803174     0.936961798018    -0.674254803033     1.007825032230

  Charge       = 0
  Multiplicity = 1
  Basis Set: AUG-CC-PVTZ
    Blend: AUG-CC-PVTZ
  Basis Set: (AUG-CC-PVTZ AUX)
    Blend: AUG-CC-PVTZ-JKFIT

    Orbital Energies [Eh]
    ---------------------

    Doubly Occupied:

       1A    -20.567770     2A     -1.352709     3A     -0.715829
       4A     -0.585283     5A     -0.510281

  @DF-RHF Final Energy:   -76.06043741556736

   => Energetics <=

    Nuclear Repulsion Energy =              9.1737402093454588
    One-Electron Energy =                -123.0046079317542365
    Two-Electron Energy =                  37.7704303068414120
    Total Energy =                        -76.0604374155673781

  Dipole Moment: [D]
     X:     1.9323      Y:     0.0864      Z:    -0.4746     Total:     1.9916

    SAPT Results
  --------------------------------------------------------------------------------------------------------
    Electrostatics                 -2.67256996 [mEh]      -1.67706297 [kcal/mol]      -7.01683146 [kJ/mol]
      Elst10,r                     -3.02464506 [mEh]      -1.89799343 [kcal/mol]      -7.94120452 [kJ/mol]
      Elst12,r                      0.35207510 [mEh]       0.22093046 [kcal/mol]       0.92437306 [kJ/mol]

    Exchange                        0.10311337 [mEh]       0.06470462 [kcal/mol]       0.27072411 [kJ/mol]
      Exch10                        0.08001130 [mEh]       0.05020785 [kcal/mol]       0.21006963 [kJ/mol]
      Exch10(S^2)                   0.08000589 [mEh]       0.05020445 [kcal/mol]       0.21005543 [kJ/mol]
      Exch11(S^2)                  -0.00226159 [mEh]      -0.00141917 [kcal/mol]      -0.00593782 [kJ/mol]
      Exch12(S^2)                   0.02536367 [mEh]       0.01591594 [kcal/mol]       0.06659230 [kJ/mol]

    Induction                      -0.19614974 [mEh]      -0.12308582 [kcal/mol]      -0.51499107 [kJ/mol]
      Ind20,r                      -0.19140255 [mEh]      -0.12010691 [kcal/mol]      -0.50252732 [kJ/mol]
      Ind22                         0.00301100 [mEh]       0.00188943 [kcal/mol]       0.00790538 [kJ/mol]
      Exch-Ind20,r                  0.00811709 [mEh]       0.00509355 [kcal/mol]       0.02131141 [kJ/mol]
      Exch-Ind22                   -0.00012769 [mEh]      -0.00008013 [kcal/mol]      -0.00033525 [kJ/mol]
      delta HF,r (2)               -0.01574759 [mEh]      -0.00988176 [kcal/mol]      -0.04134528 [kJ/mol]

    Dispersion                     -0.55333223 [mEh]      -0.34722121 [kcal/mol]      -1.45277356 [kJ/mol]
      Disp20                       -0.50125499 [mEh]      -0.31454225 [kcal/mol]      -1.31604479 [kJ/mol]
      Disp21                        0.03563426 [mEh]       0.02236084 [kcal/mol]       0.09355774 [kJ/mol]
      Disp22 (SDQ)                 -0.00266722 [mEh]      -0.00167370 [kcal/mol]      -0.00700277 [kJ/mol]
      Disp22 (T)                   -0.08792793 [mEh]      -0.05517561 [kcal/mol]      -0.23085474 [kJ/mol]
      Est. Disp22 (T)              -0.09478043 [mEh]      -0.05947561 [kcal/mol]      -0.24884597 [kJ/mol]
      Exch-Disp20                   0.00973614 [mEh]       0.00610952 [kcal/mol]       0.02556224 [kJ/mol]

  Total HF                         -3.14366681 [mEh]      -1.97268071 [kcal/mol]      -8.25369608 [kJ/mol]
  Total SAPT0                      -3.63518566 [mEh]      -2.28111344 [kcal/mol]      -9.54417863 [kJ/mol]
  Total SAPT2                      -3.25712518 [mEh]      -2.04387690 [kcal/mol]      -8.55158097 [kJ/mol]
  Total SAPT2+                     -3.31893856 [mEh]      -2.08266539 [kcal/mol]      -8.71387198 [kJ/mol]

  Special recipe for scaled SAPT0 (see Manual):
    Electrostatics sSAPT0          -3.02464506 [mEh]      -1.89799343 [kcal/mol]      -7.94120452 [kJ/mol]
    Exchange sSAPT0                 0.08001130 [mEh]       0.05020785 [kcal/mol]       0.21006963 [kJ/mol]
    Induction sSAPT0               -0.19903140 [mEh]      -0.12489409 [kcal/mol]      -0.52255687 [kJ/mol]
    Dispersion sSAPT0              -0.49151687 [mEh]      -0.30843149 [kcal/mol]      -1.29047737 [kJ/mol]
  Total sSAPT0                     -3.63518204 [mEh]      -2.28111117 [kcal/mol]      -9.54416913 [kJ/mol]
  --------------------------------------------------------------------------------------------------------

*** Psi4 exiting successfully. Buy a developer a beer!
