                               Psi4 1.4a2.dev224

  ==> Input File <==

--------------------------------------------------------------------------
#Generated by lconvert.py for sapt job

memory 50 GB

molecule  {
0 1
  C      -0.724300   -0.704940    2.283870
  H       0.335320   -0.629940    2.053180
  H      -0.951700   -1.711990    2.625650
  H      -0.969630   -0.022080    3.093760
  C      -1.614940   -0.387430    1.104070
  O      -2.837320   -0.415020    1.194130
  N      -0.953420   -0.076400   -0.040820
  H       0.053810   -0.075570   -0.036640
  C      -1.658120    0.250090   -1.258550
  H      -2.720370    0.176940   -1.046650
  H      -1.430300    1.262960   -1.588090
  H      -1.405630   -0.444330   -2.058580
--
0 1
  O       2.754440   -0.052950   -0.192740
  H       3.319410   -0.765910   -0.497950
  H       3.334190    0.711250   -0.168850
units angstrom
no_reorient
symmetry c1
}

set {
scf_type DF
basis aug-cc-pvtz
freeze_core True
guess SAD
}
energy('sapt2+')
--------------------------------------------------------------------------

  //              Dimer HF             //
    Molecular point group: c1
  Charge       = 0
  Multiplicity = 1
  Basis Set: AUG-CC-PVTZ
    Blend: AUG-CC-PVTZ
  Basis Set: (AUG-CC-PVTZ AUX)
    Blend: AUG-CC-PVTZ-JKFIT
  @DF-RHF Final Energy:  -323.16776187124350
    Total Energy =                       -323.1677618712434992
  //            Monomer A HF           //
    Molecular point group: c1
  Multiplicity = 1
  Basis Set: AUG-CC-PVTZ
    Blend: AUG-CC-PVTZ
  Basis Set: (AUG-CC-PVTZ AUX)
    Blend: AUG-CC-PVTZ-JKFIT
  @DF-RHF Final Energy:  -247.10249147908721
    Total Energy =                       -247.1024914790871776
  //            Monomer B HF           //
    Molecular point group: c1

    Geometry (in Angstrom), charge = 0, multiplicity = 1:

       Center              X                  Y                   Z               Mass
    ------------   -----------------  -----------------  -----------------  -----------------
      Gh(C)          -0.031561293176    -0.483415786968     1.807359381345    12.000000000000
      Gh(H)           1.028058706824    -0.408415786968     1.576669381345     1.007825032230
      Gh(H)          -0.258961293176    -1.490465786968     2.149139381345     1.007825032230
      Gh(H)          -0.276891293176     0.199444213032     2.617249381345     1.007825032230
      Gh(C)          -0.922201293176    -0.165905786968     0.627559381345    12.000000000000
      Gh(O)          -2.144581293176    -0.193495786968     0.717619381345    15.994914619570
      Gh(N)          -0.260681293176     0.145124213032    -0.517330618655    14.003074004430
      Gh(H)           0.746548706824     0.145954213032    -0.513150618655     1.007825032230
      Gh(C)          -0.965381293176     0.471614213032    -1.735060618655    12.000000000000
      Gh(H)          -2.027631293176     0.398464213032    -1.523160618655     1.007825032230
      Gh(H)          -0.737561293176     1.484484213032    -2.064600618655     1.007825032230
      Gh(H)          -0.712891293176    -0.222805786968    -2.535090618655     1.007825032230
         O            3.447178706824     0.168574213032    -0.669250618655    15.994914619570
         H            4.012148706824    -0.544385786968    -0.974460618655     1.007825032230
         H            4.026928706824     0.932774213032    -0.645360618655     1.007825032230

  Charge       = 0
  Multiplicity = 1
  Basis Set: AUG-CC-PVTZ
    Blend: AUG-CC-PVTZ
  Basis Set: (AUG-CC-PVTZ AUX)
    Blend: AUG-CC-PVTZ-JKFIT

    Orbital Energies [Eh]
    ---------------------

    Doubly Occupied:

       1A    -20.567706     2A     -1.352667     3A     -0.715788
       4A     -0.585263     5A     -0.510251

  @DF-RHF Final Energy:   -76.06046844160382

   => Energetics <=

    Nuclear Repulsion Energy =              9.1737267279764581
    One-Electron Energy =                -123.0050382705732659
    Two-Electron Energy =                  37.7708431009929768
    Total Energy =                        -76.0604684416038310

  Dipole Moment: [D]
     X:     1.9311      Y:     0.0863      Z:    -0.4741     Total:     1.9903

    SAPT Results
  --------------------------------------------------------------------------------------------------------
    Electrostatics                 -4.54424474 [mEh]      -2.85155663 [kcal/mol]     -11.93091293 [kJ/mol]
      Elst10,r                     -5.01031730 [mEh]      -3.14402157 [kcal/mol]     -13.15458626 [kJ/mol]
      Elst12,r                      0.46607256 [mEh]       0.29246494 [kcal/mol]       1.22367333 [kJ/mol]

    Exchange                        0.96224616 [mEh]       0.60381858 [kcal/mol]       2.52637695 [kJ/mol]
      Exch10                        0.79133426 [mEh]       0.49656975 [kcal/mol]       2.07764782 [kJ/mol]
      Exch10(S^2)                   0.79088156 [mEh]       0.49628567 [kcal/mol]       2.07645924 [kJ/mol]
      Exch11(S^2)                  -0.01038354 [mEh]      -0.00651577 [kcal/mol]      -0.02726197 [kJ/mol]
      Exch12(S^2)                   0.18129544 [mEh]       0.11376460 [kcal/mol]       0.47599110 [kJ/mol]

    Induction                      -0.60116261 [mEh]      -0.37723523 [kcal/mol]      -1.57835221 [kJ/mol]
      Ind20,r                      -0.58091519 [mEh]      -0.36452979 [kcal/mol]      -1.52519263 [kJ/mol]
      Ind22                        -0.02220266 [mEh]      -0.01393238 [kcal/mol]      -0.05829308 [kJ/mol]
      Exch-Ind20,r                  0.10485486 [mEh]       0.06579742 [kcal/mol]       0.27529640 [kJ/mol]
      Exch-Ind22                    0.00400757 [mEh]       0.00251479 [kcal/mol]       0.01052187 [kJ/mol]
      delta HF,r (2)               -0.10690718 [mEh]      -0.06708527 [kcal/mol]      -0.28068477 [kJ/mol]

    Dispersion                     -1.44994822 [mEh]      -0.90985625 [kcal/mol]      -3.80683854 [kJ/mol]
      Disp20                       -1.34306576 [mEh]      -0.84278649 [kcal/mol]      -3.52621866 [kJ/mol]
      Disp21                        0.06611973 [mEh]       0.04149076 [kcal/mol]       0.17359734 [kJ/mol]
      Disp22 (SDQ)                 -0.00569567 [mEh]      -0.00357409 [kcal/mol]      -0.01495398 [kJ/mol]
      Disp22 (T)                   -0.22204162 [mEh]      -0.13933322 [kcal/mol]      -0.58297020 [kJ/mol]
      Est. Disp22 (T)              -0.24599235 [mEh]      -0.15436253 [kcal/mol]      -0.64585283 [kJ/mol]
      Exch-Disp20                   0.07868582 [mEh]       0.04937610 [kcal/mol]       0.20658959 [kJ/mol]

  Total HF                         -4.80195055 [mEh]      -3.01326946 [kcal/mol]     -12.60751944 [kJ/mol]
  Total SAPT0                      -6.06633049 [mEh]      -3.80667985 [kcal/mol]     -15.92714851 [kJ/mol]
  Total SAPT2                      -5.44754113 [mEh]      -3.41838367 [kcal/mol]     -14.30251727 [kJ/mol]
  Total SAPT2+                     -5.63310942 [mEh]      -3.53482953 [kcal/mol]     -14.78972674 [kJ/mol]

  Special recipe for scaled SAPT0 (see Manual):
    Electrostatics sSAPT0          -5.01031730 [mEh]      -3.14402157 [kcal/mol]     -13.15458626 [kJ/mol]
    Exchange sSAPT0                 0.79133426 [mEh]       0.49656975 [kcal/mol]       2.07764782 [kJ/mol]
    Induction sSAPT0               -0.58278735 [mEh]      -0.36570459 [kcal/mol]      -1.53010798 [kJ/mol]
    Dispersion sSAPT0              -1.26424474 [mEh]      -0.79332555 [kcal/mol]      -3.31927411 [kJ/mol]
  Total sSAPT0                     -6.06601513 [mEh]      -3.80648196 [kcal/mol]     -15.92632053 [kJ/mol]
  --------------------------------------------------------------------------------------------------------

*** Psi4 exiting successfully. Buy a developer a beer!
