                               Psi4 1.4a2.dev224

  ==> Input File <==

--------------------------------------------------------------------------
#Generated by lconvert.py for sapt job

memory 50 GB

molecule  {
0 1
  C      -0.724300   -0.704940    2.283870
  H       0.335320   -0.629940    2.053180
  H      -0.951700   -1.711990    2.625650
  H      -0.969630   -0.022080    3.093760
  C      -1.614940   -0.387430    1.104070
  O      -2.837320   -0.415020    1.194130
  N      -0.953420   -0.076400   -0.040820
  H       0.053810   -0.075570   -0.036640
  C      -1.658120    0.250090   -1.258550
  H      -2.720370    0.176940   -1.046650
  H      -1.430300    1.262960   -1.588090
  H      -1.405630   -0.444330   -2.058580
--
0 1
  O       4.000840   -0.042510   -0.264790
  H       4.565810   -0.755470   -0.569990
  H       4.580590    0.721690   -0.240890
units angstrom
no_reorient
symmetry c1
}

set {
scf_type DF
basis aug-cc-pvtz
freeze_core True
guess SAD
}
energy('sapt2+')
--------------------------------------------------------------------------

  //              Dimer HF             //
    Molecular point group: c1
  Charge       = 0
  Multiplicity = 1
  Basis Set: AUG-CC-PVTZ
    Blend: AUG-CC-PVTZ
  Basis Set: (AUG-CC-PVTZ AUX)
    Blend: AUG-CC-PVTZ-JKFIT
  @DF-RHF Final Energy:  -323.16499284787540
    Total Energy =                       -323.1649928478753964
  //            Monomer A HF           //
    Molecular point group: c1
  Multiplicity = 1
  Basis Set: AUG-CC-PVTZ
    Blend: AUG-CC-PVTZ
  Basis Set: (AUG-CC-PVTZ AUX)
    Blend: AUG-CC-PVTZ-JKFIT
  @DF-RHF Final Energy:  -247.10246366641314
    Total Energy =                       -247.1024636664131435
  //            Monomer B HF           //
    Molecular point group: c1

    Geometry (in Angstrom), charge = 0, multiplicity = 1:

       Center              X                  Y                   Z               Mass
    ------------   -----------------  -----------------  -----------------  -----------------
      Gh(C)          -0.278075100475    -0.485480616997     1.821609256129    12.000000000000
      Gh(H)           0.781544899525    -0.410480616997     1.590919256129     1.007825032230
      Gh(H)          -0.505475100475    -1.492530616997     2.163389256129     1.007825032230
      Gh(H)          -0.523405100475     0.197379383003     2.631499256129     1.007825032230
      Gh(C)          -1.168715100475    -0.167970616997     0.641809256129    12.000000000000
      Gh(O)          -2.391095100475    -0.195560616997     0.731869256129    15.994914619570
      Gh(N)          -0.507195100475     0.143059383003    -0.503080743871    14.003074004430
      Gh(H)           0.500034899525     0.143889383003    -0.498900743871     1.007825032230
      Gh(C)          -1.211895100475     0.469549383003    -1.720810743871    12.000000000000
      Gh(H)          -2.274145100475     0.396399383003    -1.508910743871     1.007825032230
      Gh(H)          -0.984075100475     1.482419383003    -2.050350743871     1.007825032230
      Gh(H)          -0.959405100475    -0.224870616997    -2.520840743871     1.007825032230
         O            4.447064899525     0.176949383003    -0.727050743871    15.994914619570
         H            5.012034899525    -0.536010616997    -1.032250743871     1.007825032230
         H            5.026814899525     0.941149383003    -0.703150743871     1.007825032230

  Charge       = 0
  Multiplicity = 1
  Basis Set: AUG-CC-PVTZ
    Blend: AUG-CC-PVTZ
  Basis Set: (AUG-CC-PVTZ AUX)
    Blend: AUG-CC-PVTZ-JKFIT

    Orbital Energies [Eh]
    ---------------------

    Doubly Occupied:

       1A    -20.567789     2A     -1.352722     3A     -0.715841
       4A     -0.585288     5A     -0.510293

  @DF-RHF Final Energy:   -76.06042772980868

   => Energetics <=

    Nuclear Repulsion Energy =              9.1737402093454641
    One-Electron Energy =                -123.0044655937157501
    Two-Electron Energy =                  37.7702976545616025
    Total Energy =                        -76.0604277298086799

  Dipole Moment: [D]
     X:     1.9327      Y:     0.0865      Z:    -0.4749     Total:     1.9920

    SAPT Results
  --------------------------------------------------------------------------------------------------------
    Electrostatics                 -1.76461015 [mEh]      -1.10730958 [kcal/mol]      -4.63298330 [kJ/mol]
      Elst10,r                     -2.02330120 [mEh]      -1.26964067 [kcal/mol]      -5.31217656 [kJ/mol]
      Elst12,r                      0.25869105 [mEh]       0.16233109 [kcal/mol]       0.67919326 [kJ/mol]

    Exchange                        0.01079342 [mEh]       0.00677297 [kcal/mol]       0.02833812 [kJ/mol]
      Exch10                        0.00792804 [mEh]       0.00497492 [kcal/mol]       0.02081505 [kJ/mol]
      Exch10(S^2)                   0.00792797 [mEh]       0.00497488 [kcal/mol]       0.02081489 [kJ/mol]
      Exch11(S^2)                  -0.00034537 [mEh]      -0.00021672 [kcal/mol]      -0.00090677 [kJ/mol]
      Exch12(S^2)                   0.00321075 [mEh]       0.00201478 [kcal/mol]       0.00842983 [kJ/mol]

    Induction                      -0.08295077 [mEh]      -0.05205239 [kcal/mol]      -0.21778721 [kJ/mol]
      Ind20,r                      -0.08325054 [mEh]      -0.05224050 [kcal/mol]      -0.21857426 [kJ/mol]
      Ind22                         0.00315358 [mEh]       0.00197890 [kcal/mol]       0.00827973 [kJ/mol]
      Exch-Ind20,r                  0.00068257 [mEh]       0.00042832 [kcal/mol]       0.00179207 [kJ/mol]
      Exch-Ind22                   -0.00002586 [mEh]      -0.00001622 [kcal/mol]      -0.00006788 [kJ/mol]
      delta HF,r (2)               -0.00351052 [mEh]      -0.00220288 [kcal/mol]      -0.00921686 [kJ/mol]

    Dispersion                     -0.24078904 [mEh]      -0.15109740 [kcal/mol]      -0.63219153 [kJ/mol]
      Disp20                       -0.21929938 [mEh]      -0.13761244 [kcal/mol]      -0.57577045 [kJ/mol]
      Disp21                        0.02041170 [mEh]       0.01280854 [kcal/mol]       0.05359092 [kJ/mol]
      Disp22 (SDQ)                 -0.00108330 [mEh]      -0.00067978 [kcal/mol]      -0.00284421 [kJ/mol]
      Disp22 (T)                   -0.03989574 [mEh]      -0.02503495 [kcal/mol]      -0.10474625 [kJ/mol]
      Est. Disp22 (T)              -0.04196849 [mEh]      -0.02633562 [kcal/mol]      -0.11018825 [kJ/mol]
      Exch-Disp20                   0.00115043 [mEh]       0.00072191 [kcal/mol]       0.00302045 [kJ/mol]

  Total HF                         -2.10145165 [mEh]      -1.31868082 [kcal/mol]      -5.51736056 [kJ/mol]
  Total SAPT0                      -2.31960061 [mEh]      -1.45557136 [kcal/mol]      -6.09011055 [kJ/mol]
  Total SAPT2                      -2.05491645 [mEh]      -1.28947954 [kcal/mol]      -5.39518239 [kJ/mol]
  Total SAPT2+                     -2.07755653 [mEh]      -1.30368641 [kcal/mol]      -5.45462392 [kJ/mol]

  Special recipe for scaled SAPT0 (see Manual):
    Electrostatics sSAPT0          -2.02330120 [mEh]      -1.26964067 [kcal/mol]      -5.31217656 [kJ/mol]
    Exchange sSAPT0                 0.00792804 [mEh]       0.00497492 [kcal/mol]       0.02081505 [kJ/mol]
    Induction sSAPT0               -0.08607849 [mEh]      -0.05401507 [kcal/mol]      -0.22599905 [kJ/mol]
    Dispersion sSAPT0              -0.21814895 [mEh]      -0.13689053 [kcal/mol]      -0.57274999 [kJ/mol]
  Total sSAPT0                     -2.31960061 [mEh]      -1.45557136 [kcal/mol]      -6.09011055 [kJ/mol]
  --------------------------------------------------------------------------------------------------------

*** Psi4 exiting successfully. Buy a developer a beer!
