                               Psi4 1.4a2.dev224

  ==> Input File <==

--------------------------------------------------------------------------
#Generated by lconvert.py for sapt job

memory 80 GB

molecule  {
0 1
  N      -0.730000    0.022770    0.000920
  H       0.298420    0.074000    0.001620
  C      -1.296820   -1.240430    0.001500
  O      -0.594100   -2.253520    0.002630
  C      -2.743620   -1.262330    0.000480
  H      -3.249590   -2.211840    0.000830
  C      -3.422020   -0.095910   -0.000920
  H      -4.500900   -0.049220   -0.001750
  N      -2.774840    1.105410   -0.001420
  H      -3.283840    1.973880   -0.002490
  C      -1.391480    1.237020   -0.000520
  O      -0.839840    2.317040   -0.001000
--
0 1
  N       5.749530   -1.162470   -0.000340
  H       6.196770   -0.255900    0.000050
  C       6.605580   -2.277090   -0.001840
  O       7.815030   -2.125390   -0.002590
  C       5.891360   -3.539260   -0.002340
  H       6.457940   -4.454290   -0.003480
  C       4.541190   -3.543080   -0.001380
  H       3.964230   -4.456050   -0.001700
  N       3.803200   -2.392200    0.000070
  H       2.776860   -2.413640    0.000740
  C       4.375970   -1.147530    0.000620
  O       3.725650   -0.106320    0.001850
units angstrom
no_reorient
symmetry c1
}

set {
scf_type DF
basis aug-cc-pvtz
freeze_core True
guess SAD
}
energy('sapt2+')
--------------------------------------------------------------------------

  //              Dimer HF             //
    Molecular point group: c1
  Charge       = 0
  Multiplicity = 1
  Basis Set: AUG-CC-PVTZ
    Blend: AUG-CC-PVTZ
  Basis Set: (AUG-CC-PVTZ AUX)
    Blend: AUG-CC-PVTZ-JKFIT
  @DF-RHF Final Energy:  -825.25171900307555
    Total Energy =                       -825.2517190030755501
  //            Monomer A HF           //
    Molecular point group: c1
  Multiplicity = 1
  Basis Set: AUG-CC-PVTZ
    Blend: AUG-CC-PVTZ
  Basis Set: (AUG-CC-PVTZ AUX)
    Blend: AUG-CC-PVTZ-JKFIT
  @DF-RHF Final Energy:  -412.62267551670368
    Total Energy =                       -412.6226755167036799
  //            Monomer B HF           //
    Molecular point group: c1

    Geometry (in Angstrom), charge = 0, multiplicity = 1:

       Center              X                  Y                   Z               Mass
    ------------   -----------------  -----------------  -----------------  -----------------
      Gh(N)          -2.541144026896     1.017916000444     0.001168043392    14.003074004430
      Gh(H)          -1.512724026896     1.069146000444     0.001868043392     1.007825032230
      Gh(C)          -3.107964026896    -0.245283999556     0.001748043392    12.000000000000
      Gh(O)          -2.405244026896    -1.258373999556     0.002878043392    15.994914619570
      Gh(C)          -4.554764026896    -0.267183999556     0.000728043392    12.000000000000
      Gh(H)          -5.060734026896    -1.216693999556     0.001078043392     1.007825032230
      Gh(C)          -5.233164026896     0.899236000444    -0.000671956608    12.000000000000
      Gh(H)          -6.312044026896     0.945926000444    -0.001501956608     1.007825032230
      Gh(N)          -4.585984026896     2.100556000444    -0.001171956608    14.003074004430
      Gh(H)          -5.094984026896     2.969026000444    -0.002241956608     1.007825032230
      Gh(C)          -3.202624026896     2.232166000444    -0.000271956608    12.000000000000
      Gh(O)          -2.650984026896     3.312186000444    -0.000751956608    15.994914619570
         N            3.938385973104    -0.167323999556    -0.000091956608    14.003074004430
         H            4.385625973104     0.739246000444     0.000298043392     1.007825032230
         C            4.794435973104    -1.281943999556    -0.001591956608    12.000000000000
         O            6.003885973104    -1.130243999556    -0.002341956608    15.994914619570
         C            4.080215973104    -2.544113999556    -0.002091956608    12.000000000000
         H            4.646795973104    -3.459143999556    -0.003231956608     1.007825032230
         C            2.730045973104    -2.547933999556    -0.001131956608    12.000000000000
         H            2.153085973104    -3.460903999556    -0.001451956608     1.007825032230
         N            1.992055973104    -1.397053999556     0.000318043392    14.003074004430
         H            0.965715973104    -1.418493999556     0.000988043392     1.007825032230
         C            2.564825973104    -0.152383999556     0.000868043392    12.000000000000
         O            1.914505973104     0.888826000444     0.002098043392    15.994914619570

  Charge       = 0
  Multiplicity = 1
  Basis Set: AUG-CC-PVTZ
    Blend: AUG-CC-PVTZ
  Basis Set: (AUG-CC-PVTZ AUX)
    Blend: AUG-CC-PVTZ-JKFIT

    Orbital Energies [Eh]
    ---------------------

    Doubly Occupied:

       1A    -20.543217     2A    -20.542848     3A    -15.649974
       4A    -15.628053     5A    -11.417660     6A    -11.381931
       7A    -11.343117     8A    -11.258061     9A     -1.432881
      10A     -1.397513    11A     -1.313981    12A     -1.247108
      13A     -1.090459    14A     -0.937731    15A     -0.901525
      16A     -0.807758    17A     -0.767853    18A     -0.715672
      19A     -0.677498    20A     -0.670743    21A     -0.649795
      22A     -0.615723    23A     -0.602581    24A     -0.571660
      25A     -0.524818    26A     -0.481658    27A     -0.449402
      28A     -0.435904    29A     -0.371046

  @DF-RHF Final Energy:  -412.62294189664232

   => Energetics <=

    Nuclear Repulsion Energy =            357.2284025134933927
    One-Electron Energy =               -1270.8463343758801329
    Two-Electron Energy =                 500.9949899657444234
    Total Energy =                       -412.6229418966423168

  Dipole Moment: [D]
     X:    -3.3611      Y:    -3.9458      Z:    -0.0007     Total:     5.1833

    SAPT Results
  --------------------------------------------------------------------------------------------------------
    Electrostatics                 -4.79806107 [mEh]      -3.01082878 [kcal/mol]     -12.59730761 [kJ/mol]
      Elst10,r                     -5.76111975 [mEh]      -3.61515722 [kcal/mol]     -15.12581782 [kJ/mol]
      Elst12,r                      0.96305868 [mEh]       0.60432845 [kcal/mol]       2.52851022 [kJ/mol]

    Exchange                        0.20132504 [mEh]       0.12633337 [kcal/mol]       0.52857881 [kJ/mol]
      Exch10                        0.13620454 [mEh]       0.08546964 [kcal/mol]       0.35760497 [kJ/mol]
      Exch10(S^2)                   0.13619012 [mEh]       0.08546059 [kcal/mol]       0.35756711 [kJ/mol]
      Exch11(S^2)                  -0.00512699 [mEh]      -0.00321723 [kcal/mol]      -0.01346090 [kJ/mol]
      Exch12(S^2)                   0.07024748 [mEh]       0.04408096 [kcal/mol]       0.18443473 [kJ/mol]

    Induction                      -0.47773685 [mEh]      -0.29978440 [kcal/mol]      -1.25429791 [kJ/mol]
      Ind20,r                      -0.46128720 [mEh]      -0.28946209 [kcal/mol]      -1.21110939 [kJ/mol]
      Ind22                        -0.00112672 [mEh]      -0.00070703 [kcal/mol]      -0.00295821 [kJ/mol]
      Exch-Ind20,r                  0.02636404 [mEh]       0.01654368 [kcal/mol]       0.06921877 [kJ/mol]
      Exch-Ind22                    0.00006440 [mEh]       0.00004041 [kcal/mol]       0.00016907 [kJ/mol]
      delta HF,r (2)               -0.04175135 [mEh]      -0.02619937 [kcal/mol]      -0.10961816 [kJ/mol]

    Dispersion                     -1.24100587 [mEh]      -0.77874294 [kcal/mol]      -3.25826045 [kJ/mol]
      Disp20                       -1.09977989 [mEh]      -0.69012230 [kcal/mol]      -2.88747171 [kJ/mol]
      Disp21                        0.14385546 [mEh]       0.09027067 [kcal/mol]       0.37769246 [kJ/mol]
      Disp22 (SDQ)                 -0.01783645 [mEh]      -0.01119254 [kcal/mol]      -0.04682961 [kJ/mol]
      Disp22 (T)                   -0.27252541 [mEh]      -0.17101227 [kcal/mol]      -0.71551535 [kJ/mol]
      Est. Disp22 (T)              -0.28402224 [mEh]      -0.17822665 [kcal/mol]      -0.74570030 [kJ/mol]
      Exch-Disp20                   0.01677726 [mEh]       0.01052789 [kcal/mol]       0.04404869 [kJ/mol]

  Total HF                         -6.10158973 [mEh]      -3.82880536 [kcal/mol]     -16.01972163 [kJ/mol]
  Total SAPT0                      -7.18459236 [mEh]      -4.50839977 [kcal/mol]     -18.86314464 [kJ/mol]
  Total SAPT2                      -6.15747551 [mEh]      -3.86387422 [kcal/mol]     -16.16644973 [kJ/mol]
  Total SAPT2+                     -6.31547875 [mEh]      -3.96302275 [kcal/mol]     -16.58128717 [kJ/mol]

  Special recipe for scaled SAPT0 (see Manual):
    Electrostatics sSAPT0          -5.76111975 [mEh]      -3.61515722 [kcal/mol]     -15.12581782 [kJ/mol]
    Exchange sSAPT0                 0.13620454 [mEh]       0.08546964 [kcal/mol]       0.35760497 [kJ/mol]
    Induction sSAPT0               -0.47666614 [mEh]      -0.29911252 [kcal/mol]      -1.25148679 [kJ/mol]
    Dispersion sSAPT0              -1.08299730 [mEh]      -0.67959107 [kcal/mol]      -2.84340902 [kJ/mol]
  Total sSAPT0                     -7.18457865 [mEh]      -4.50839117 [kcal/mol]     -18.86310866 [kJ/mol]
  --------------------------------------------------------------------------------------------------------

*** Psi4 exiting successfully. Buy a developer a beer!
