                               Psi4 1.4a2.dev224

  ==> Input File <==

--------------------------------------------------------------------------
#Generated by lconvert.py for sapt job

memory 80 GB

molecule  {
0 1
  N      -0.730000    0.022770    0.000920
  H       0.298420    0.074000    0.001620
  C      -1.296820   -1.240430    0.001500
  O      -0.594100   -2.253520    0.002630
  C      -2.743620   -1.262330    0.000480
  H      -3.249590   -2.211840    0.000830
  C      -3.422020   -0.095910   -0.000920
  H      -4.500900   -0.049220   -0.001750
  N      -2.774840    1.105410   -0.001420
  H      -3.283840    1.973880   -0.002490
  C      -1.391480    1.237020   -0.000520
  O      -0.839840    2.317040   -0.001000
--
0 1
  N       4.685040   -1.112180    0.000290
  H       5.132280   -0.205610    0.000680
  C       5.541080   -2.226800   -0.001210
  O       6.750540   -2.075090   -0.001960
  C       4.826860   -3.488970   -0.001710
  H       5.393450   -4.404000   -0.002850
  C       3.476690   -3.492790   -0.000750
  H       2.899730   -4.405750   -0.001070
  N       2.738700   -2.341910    0.000700
  H       1.712370   -2.363350    0.001370
  C       3.311480   -1.097240    0.001250
  O       2.661150   -0.056020    0.002480
units angstrom
no_reorient
symmetry c1
}

set {
scf_type DF
basis aug-cc-pvtz
freeze_core True
guess SAD
}
energy('sapt2+')
--------------------------------------------------------------------------

  //              Dimer HF             //
    Molecular point group: c1
  Charge       = 0
  Multiplicity = 1
  Basis Set: AUG-CC-PVTZ
    Blend: AUG-CC-PVTZ
  Basis Set: (AUG-CC-PVTZ AUX)
    Blend: AUG-CC-PVTZ-JKFIT
  @DF-RHF Final Energy:  -825.26249723356273
    Total Energy =                       -825.2624972335627263
  //            Monomer A HF           //
    Molecular point group: c1
  Multiplicity = 1
  Basis Set: AUG-CC-PVTZ
    Blend: AUG-CC-PVTZ
  Basis Set: (AUG-CC-PVTZ AUX)
    Blend: AUG-CC-PVTZ-JKFIT
  @DF-RHF Final Energy:  -412.62279659439912
    Total Energy =                       -412.6227965943991194
  //            Monomer B HF           //
    Molecular point group: c1

    Geometry (in Angstrom), charge = 0, multiplicity = 1:

       Center              X                  Y                   Z               Mass
    ------------   -----------------  -----------------  -----------------  -----------------
      Gh(N)          -2.008896036293     0.992769527693     0.000853043392    14.003074004430
      Gh(H)          -0.980476036293     1.043999527693     0.001553043392     1.007825032230
      Gh(C)          -2.575716036293    -0.270430472307     0.001433043392    12.000000000000
      Gh(O)          -1.872996036293    -1.283520472307     0.002563043392    15.994914619570
      Gh(C)          -4.022516036293    -0.292330472307     0.000413043392    12.000000000000
      Gh(H)          -4.528486036293    -1.241840472307     0.000763043392     1.007825032230
      Gh(C)          -4.700916036293     0.874089527693    -0.000986956608    12.000000000000
      Gh(H)          -5.779796036293     0.920779527693    -0.001816956608     1.007825032230
      Gh(N)          -4.053736036293     2.075409527693    -0.001486956608    14.003074004430
      Gh(H)          -4.562736036293     2.943879527693    -0.002556956608     1.007825032230
      Gh(C)          -2.670376036293     2.207019527693    -0.000586956608    12.000000000000
      Gh(O)          -2.118736036293     3.287039527693    -0.001066956608    15.994914619570
         N            3.406143963707    -0.142180472307     0.000223043392    14.003074004430
         H            3.853383963707     0.764389527693     0.000613043392     1.007825032230
         C            4.262183963707    -1.256800472307    -0.001276956608    12.000000000000
         O            5.471643963707    -1.105090472307    -0.002026956608    15.994914619570
         C            3.547963963707    -2.518970472307    -0.001776956608    12.000000000000
         H            4.114553963707    -3.434000472307    -0.002916956608     1.007825032230
         C            2.197793963707    -2.522790472307    -0.000816956608    12.000000000000
         H            1.620833963707    -3.435750472307    -0.001136956608     1.007825032230
         N            1.459803963707    -1.371910472307     0.000633043392    14.003074004430
         H            0.433473963707    -1.393350472307     0.001303043392     1.007825032230
         C            2.032583963707    -0.127240472307     0.001183043392    12.000000000000
         O            1.382253963707     0.913979527693     0.002413043392    15.994914619570

  Charge       = 0
  Multiplicity = 1
  Basis Set: AUG-CC-PVTZ
    Blend: AUG-CC-PVTZ
  Basis Set: (AUG-CC-PVTZ AUX)
    Blend: AUG-CC-PVTZ-JKFIT

    Orbital Energies [Eh]
    ---------------------

    Doubly Occupied:

       1A    -20.543214     2A    -20.542819     3A    -15.649986
       4A    -15.628050     5A    -11.417660     6A    -11.381929
       7A    -11.343122     8A    -11.258057     9A     -1.432865
      10A     -1.397500    11A     -1.313968    12A     -1.247106
      13A     -1.090458    14A     -0.937726    15A     -0.901524
      16A     -0.807758    17A     -0.767848    18A     -0.715674
      19A     -0.677493    20A     -0.670735    21A     -0.649787
      22A     -0.615719    23A     -0.602576    24A     -0.571652
      25A     -0.524808    26A     -0.481655    27A     -0.449399
      28A     -0.435895    29A     -0.371042

  @DF-RHF Final Energy:  -412.62305279162888

   => Energetics <=

    Nuclear Repulsion Energy =            357.2277626132699879
    One-Electron Energy =               -1270.8455619530100194
    Two-Electron Energy =                 500.9947465481111522
    Total Energy =                       -412.6230527916288793

  Dipole Moment: [D]
     X:    -3.3617      Y:    -3.9454      Z:    -0.0007     Total:     5.1834

    SAPT Results
  --------------------------------------------------------------------------------------------------------
    Electrostatics                -16.58228776 [mEh]     -10.40554267 [kcal/mol]     -43.53679052 [kJ/mol]
      Elst10,r                    -18.51718409 [mEh]     -11.61970845 [kcal/mol]     -48.61686014 [kJ/mol]
      Elst12,r                      1.93489633 [mEh]       1.21416578 [kcal/mol]       5.08006962 [kJ/mol]

    Exchange                        7.54140189 [mEh]       4.73230113 [kcal/mol]      19.79994792 [kJ/mol]
      Exch10                        6.08050220 [mEh]       3.81557274 [kcal/mol]      15.96435633 [kJ/mol]
      Exch10(S^2)                   6.06489706 [mEh]       3.80578036 [kcal/mol]      15.92338504 [kJ/mol]
      Exch11(S^2)                  -0.06247089 [mEh]      -0.03920108 [kcal/mol]      -0.16401731 [kJ/mol]
      Exch12(S^2)                   1.52337058 [mEh]       0.95592947 [kcal/mol]       3.99960890 [kJ/mol]

    Induction                      -4.54390857 [mEh]      -2.85134568 [kcal/mol]     -11.93003031 [kJ/mol]
      Ind20,r                      -4.42776026 [mEh]      -2.77846151 [kcal/mol]     -11.62508296 [kJ/mol]
      Ind22                        -0.48568316 [mEh]      -0.30477078 [kcal/mol]      -1.27516096 [kJ/mol]
      Exch-Ind20,r                  1.39428896 [mEh]       0.87492953 [kcal/mol]       3.66070516 [kJ/mol]
      Exch-Ind22                    0.15294023 [mEh]       0.09597144 [kcal/mol]       0.40154451 [kJ/mol]
      delta HF,r (2)               -1.17769434 [mEh]      -0.73901436 [kcal/mol]      -3.09203607 [kJ/mol]

    Dispersion                     -5.99423875 [mEh]      -3.76144160 [kcal/mol]     -15.73787166 [kJ/mol]
      Disp20                       -5.60962049 [mEh]      -3.52009000 [kcal/mol]     -14.72805656 [kJ/mol]
      Disp21                        0.48057627 [mEh]       0.30156616 [kcal/mol]       1.26175283 [kJ/mol]
      Disp22 (SDQ)                 -0.09222698 [mEh]      -0.05787331 [kcal/mol]      -0.24214192 [kJ/mol]
      Disp22 (T)                   -1.18094776 [mEh]      -0.74105591 [kcal/mol]      -3.10057792 [kJ/mol]
      Est. Disp22 (T)              -1.30422428 [mEh]      -0.81841309 [kcal/mol]      -3.42424038 [kJ/mol]
      Exch-Disp20                   0.53125674 [mEh]       0.33336864 [kcal/mol]       1.39481437 [kJ/mol]

  Total HF                        -16.64784753 [mEh]     -10.44668205 [kcal/mol]     -43.70891768 [kJ/mol]
  Total SAPT0                     -21.72621129 [mEh]     -13.63340341 [kcal/mol]     -57.04215987 [kJ/mol]
  Total SAPT2                     -18.66315820 [mEh]     -11.71130858 [kcal/mol]     -49.00011510 [kJ/mol]
  Total SAPT2+                    -19.57903319 [mEh]     -12.28602882 [kcal/mol]     -51.40474457 [kJ/mol]

  Special recipe for scaled SAPT0 (see Manual):
    Electrostatics sSAPT0         -18.51718409 [mEh]     -11.61970845 [kcal/mol]     -48.61686014 [kJ/mol]
    Exchange sSAPT0                 6.08050220 [mEh]       3.81557274 [kcal/mol]      15.96435633 [kJ/mol]
    Induction sSAPT0               -4.20037530 [mEh]      -2.63577529 [kcal/mol]     -11.02808383 [kJ/mol]
    Dispersion sSAPT0              -5.07425238 [mEh]      -3.18414144 [kcal/mol]     -13.32244778 [kJ/mol]
  Total sSAPT0                    -21.71130957 [mEh]     -13.62405244 [kcal/mol]     -57.00303542 [kJ/mol]
  --------------------------------------------------------------------------------------------------------

*** Psi4 exiting successfully. Buy a developer a beer!
