                               Psi4 1.4a2.dev224

  ==> Input File <==

--------------------------------------------------------------------------
#Generated by lconvert.py for sapt job

memory 80 GB

molecule  {
0 1
  N      -0.730000    0.022770    0.000920
  H       0.298420    0.074000    0.001620
  C      -1.296820   -1.240430    0.001500
  O      -0.594100   -2.253520    0.002630
  C      -2.743620   -1.262330    0.000480
  H      -3.249590   -2.211840    0.000830
  C      -3.422020   -0.095910   -0.000920
  H      -4.500900   -0.049220   -0.001750
  N      -2.774840    1.105410   -0.001420
  H      -3.283840    1.973880   -0.002490
  C      -1.391480    1.237020   -0.000520
  O      -0.839840    2.317040   -0.001000
--
0 1
  N       5.217280   -1.137330   -0.000030
  H       5.664530   -0.230750    0.000360
  C       6.073330   -2.251940   -0.001530
  O       7.282780   -2.100240   -0.002270
  C       5.359110   -3.514120   -0.002030
  H       5.925700   -4.429150   -0.003170
  C       4.008940   -3.517940   -0.001070
  H       3.431980   -4.430900   -0.001390
  N       3.270950   -2.367050    0.000380
  H       2.244620   -2.388500    0.001060
  C       3.843720   -1.122390    0.000930
  O       3.193400   -0.081170    0.002170
units angstrom
no_reorient
symmetry c1
}

set {
scf_type DF
basis aug-cc-pvtz
freeze_core True
guess SAD
}
energy('sapt2+')
--------------------------------------------------------------------------

  //              Dimer HF             //
    Molecular point group: c1
  Charge       = 0
  Multiplicity = 1
  Basis Set: AUG-CC-PVTZ
    Blend: AUG-CC-PVTZ
  Basis Set: (AUG-CC-PVTZ AUX)
    Blend: AUG-CC-PVTZ-JKFIT
  @DF-RHF Final Energy:  -825.25582993946193
    Total Energy =                       -825.2558299394618189
  //            Monomer A HF           //
    Molecular point group: c1
  Multiplicity = 1
  Basis Set: AUG-CC-PVTZ
    Blend: AUG-CC-PVTZ
  Basis Set: (AUG-CC-PVTZ AUX)
    Blend: AUG-CC-PVTZ-JKFIT
  @DF-RHF Final Energy:  -412.62272188421082
    Total Energy =                       -412.6227218842108186
  //            Monomer B HF           //
    Molecular point group: c1

    Geometry (in Angstrom), charge = 0, multiplicity = 1:

       Center              X                  Y                   Z               Mass
    ------------   -----------------  -----------------  -----------------  -----------------
      Gh(N)          -2.275019161839     1.005343322143     0.001011570641    14.003074004430
      Gh(H)          -1.246599161839     1.056573322143     0.001711570641     1.007825032230
      Gh(C)          -2.841839161839    -0.257856677857     0.001591570641    12.000000000000
      Gh(O)          -2.139119161839    -1.270946677857     0.002721570641    15.994914619570
      Gh(C)          -4.288639161839    -0.279756677857     0.000571570641    12.000000000000
      Gh(H)          -4.794609161839    -1.229266677857     0.000921570641     1.007825032230
      Gh(C)          -4.967039161839     0.886663322143    -0.000828429359    12.000000000000
      Gh(H)          -6.045919161839     0.933353322143    -0.001658429359     1.007825032230
      Gh(N)          -4.319859161839     2.087983322143    -0.001328429359    14.003074004430
      Gh(H)          -4.828859161839     2.956453322143    -0.002398429359     1.007825032230
      Gh(C)          -2.936499161839     2.219593322143    -0.000428429359    12.000000000000
      Gh(O)          -2.384859161839     3.299613322143    -0.000908429359    15.994914619570
         N            3.672260838161    -0.154756677857     0.000061570641    14.003074004430
         H            4.119510838161     0.751823322143     0.000451570641     1.007825032230
         C            4.528310838161    -1.269366677857    -0.001438429359    12.000000000000
         O            5.737760838161    -1.117666677857    -0.002178429359    15.994914619570
         C            3.814090838161    -2.531546677857    -0.001938429359    12.000000000000
         H            4.380680838161    -3.446576677857    -0.003078429359     1.007825032230
         C            2.463920838161    -2.535366677857    -0.000978429359    12.000000000000
         H            1.886960838161    -3.448326677857    -0.001298429359     1.007825032230
         N            1.725930838161    -1.384476677857     0.000471570641    14.003074004430
         H            0.699600838161    -1.405926677857     0.001151570641     1.007825032230
         C            2.298700838161    -0.139816677857     0.001021570641    12.000000000000
         O            1.648380838161     0.901403322143     0.002261570641    15.994914619570

  Charge       = 0
  Multiplicity = 1
  Basis Set: AUG-CC-PVTZ
    Blend: AUG-CC-PVTZ
  Basis Set: (AUG-CC-PVTZ AUX)
    Blend: AUG-CC-PVTZ-JKFIT

    Orbital Energies [Eh]
    ---------------------

    Doubly Occupied:

       1A    -20.543216     2A    -20.542835     3A    -15.649977
       4A    -15.628053     5A    -11.417656     6A    -11.381930
       7A    -11.343119     8A    -11.258061     9A     -1.432874
      10A     -1.397510    11A     -1.313975    12A     -1.247107
      13A     -1.090458    14A     -0.937727    15A     -0.901526
      16A     -0.807756    17A     -0.767852    18A     -0.715670
      19A     -0.677496    20A     -0.670740    21A     -0.649789
      22A     -0.615723    23A     -0.602578    24A     -0.571658
      25A     -0.524811    26A     -0.481658    27A     -0.449402
      28A     -0.435900    29A     -0.371045

  @DF-RHF Final Energy:  -412.62298082171134

   => Energetics <=

    Nuclear Repulsion Energy =            357.2281943898694294
    One-Electron Energy =               -1270.8461280885812812
    Two-Electron Energy =                 500.9949528770004576
    Total Energy =                       -412.6229808217113373

  Dipole Moment: [D]
     X:    -3.3612      Y:    -3.9456      Z:    -0.0007     Total:     5.1832

    SAPT Results
  --------------------------------------------------------------------------------------------------------
    Electrostatics                 -8.37461039 [mEh]      -5.25514736 [kcal/mol]     -21.98753656 [kJ/mol]
      Elst10,r                     -9.77123939 [mEh]      -6.13154529 [kcal/mol]     -25.65438548 [kJ/mol]
      Elst12,r                      1.39662900 [mEh]       0.87639793 [kcal/mol]       3.66684892 [kJ/mol]

    Exchange                        1.23009162 [mEh]       0.77189414 [kcal/mol]       3.22960510 [kJ/mol]
      Exch10                        0.90888620 [mEh]       0.57033470 [kcal/mol]       2.38628039 [kJ/mol]
      Exch10(S^2)                   0.90841272 [mEh]       0.57003759 [kcal/mol]       2.38503728 [kJ/mol]
      Exch11(S^2)                  -0.02183707 [mEh]      -0.01370297 [kcal/mol]      -0.05733323 [kJ/mol]
      Exch12(S^2)                   0.34304249 [mEh]       0.21526241 [kcal/mol]       0.90065794 [kJ/mol]

    Induction                      -1.32577886 [mEh]      -0.83193880 [kcal/mol]      -3.48083192 [kJ/mol]
      Ind20,r                      -1.25294238 [mEh]      -0.78623321 [kcal/mol]      -3.28959975 [kJ/mol]
      Ind22                        -0.07166850 [mEh]      -0.04497266 [kcal/mol]      -0.18816561 [kJ/mol]
      Exch-Ind20,r                  0.18828597 [mEh]       0.11815123 [kcal/mol]       0.49434475 [kJ/mol]
      Exch-Ind22                    0.01076999 [mEh]       0.00675827 [kcal/mol]       0.02827660 [kJ/mol]
      delta HF,r (2)               -0.20022395 [mEh]      -0.12564243 [kcal/mol]      -0.52568791 [kJ/mol]

    Dispersion                     -2.59247495 [mEh]      -1.62680259 [kcal/mol]      -6.80654205 [kJ/mol]
      Disp20                       -2.31358148 [mEh]      -1.45179430 [kcal/mol]      -6.07430734 [kJ/mol]
      Disp21                        0.24253110 [mEh]       0.15219056 [kcal/mol]       0.63676532 [kJ/mol]
      Disp22 (SDQ)                 -0.04223396 [mEh]      -0.02650221 [kcal/mol]      -0.11088525 [kJ/mol]
      Disp22 (T)                   -0.53980397 [mEh]      -0.33873210 [kcal/mol]      -1.41725512 [kJ/mol]
      Est. Disp22 (T)              -0.57525626 [mEh]      -0.36097876 [kcal/mol]      -1.51033511 [kJ/mol]
      Exch-Disp20                   0.09606565 [mEh]       0.06028210 [kcal/mol]       0.25222032 [kJ/mol]

  Total HF                        -10.12723354 [mEh]      -6.35493499 [kcal/mol]     -26.58904800 [kJ/mol]
  Total SAPT0                     -12.34474937 [mEh]      -7.74644718 [kcal/mol]     -32.41113501 [kJ/mol]
  Total SAPT2                     -10.68781347 [mEh]      -6.70670421 [kcal/mol]     -28.06085040 [kJ/mol]
  Total SAPT2+                    -11.06277259 [mEh]      -6.94199461 [kcal/mol]     -29.04530543 [kJ/mol]

  Special recipe for scaled SAPT0 (see Manual):
    Electrostatics sSAPT0          -9.77123939 [mEh]      -6.13154529 [kcal/mol]     -25.65438548 [kJ/mol]
    Exchange sSAPT0                 0.90888620 [mEh]       0.57033470 [kcal/mol]       2.38628039 [kJ/mol]
    Induction sSAPT0               -1.26458579 [mEh]      -0.79353956 [kcal/mol]      -3.32016953 [kJ/mol]
    Dispersion sSAPT0              -2.21736554 [mEh]      -1.39141788 [kcal/mol]      -5.82169243 [kJ/mol]
  Total sSAPT0                    -12.34430452 [mEh]      -7.74616803 [kcal/mol]     -32.40996704 [kJ/mol]
  --------------------------------------------------------------------------------------------------------

*** Psi4 exiting successfully. Buy a developer a beer!
