                               Psi4 1.4a2.dev224

  ==> Input File <==

--------------------------------------------------------------------------
#Generated by lconvert.py for sapt job

memory 50 GB

molecule  {
0 1
  O      -0.552830   -0.101700   -0.000500
  H      -0.871760    0.801790    0.000140
  H       0.412660   -0.001830   -0.000250
--
0 1
  N       3.601530    0.159060    0.000400
  C       4.297440    0.125090    1.145150
  H       3.712770    0.148700    2.056020
  C       5.686460    0.059910    1.195140
  H       6.192370    0.035060    2.149470
  C       6.397630    0.026780    0.000230
  H       7.477470   -0.024990    0.000150
  C       5.686320    0.059840   -1.194570
  H       6.192120    0.034970   -2.148970
  C       4.297290    0.125040   -1.144420
  H       3.712520    0.148640   -2.055210
units angstrom
no_reorient
symmetry c1
}

set {
scf_type DF
basis aug-cc-pvtz
freeze_core True
guess SAD
}
energy('sapt2+')
--------------------------------------------------------------------------

  //              Dimer HF             //
    Molecular point group: c1
  Charge       = 0
  Multiplicity = 1
  Basis Set: AUG-CC-PVTZ
    Blend: AUG-CC-PVTZ
  Basis Set: (AUG-CC-PVTZ AUX)
    Blend: AUG-CC-PVTZ-JKFIT
  @DF-RHF Final Energy:  -322.84212159299625
    Total Energy =                       -322.8421215929962500
  //            Monomer A HF           //
    Molecular point group: c1
  Multiplicity = 1
  Basis Set: AUG-CC-PVTZ
    Blend: AUG-CC-PVTZ
  Basis Set: (AUG-CC-PVTZ AUX)
    Blend: AUG-CC-PVTZ-JKFIT
  @DF-RHF Final Energy:   -76.05991561289076
    Total Energy =                        -76.0599156128907623
  //            Monomer B HF           //
    Molecular point group: c1

    Geometry (in Angstrom), charge = 0, multiplicity = 1:

       Center              X                  Y                   Z               Mass
    ------------   -----------------  -----------------  -----------------  -----------------
      Gh(O)          -4.519845140394    -0.168795925179    -0.000678504304    15.994914619570
      Gh(H)          -4.838775140394     0.734694074821    -0.000038504304     1.007825032230
      Gh(H)          -3.554355140394    -0.068925925179    -0.000428504304     1.007825032230
         N           -0.365485140394     0.091964074821     0.000221495696    14.003074004430
         C            0.330424859606     0.057994074821     1.144971495696    12.000000000000
         H           -0.254245140394     0.081604074821     2.055841495696     1.007825032230
         C            1.719444859606    -0.007185925179     1.194961495696    12.000000000000
         H            2.225354859606    -0.032035925179     2.149291495696     1.007825032230
         C            2.430614859606    -0.040315925179     0.000051495696    12.000000000000
         H            3.510454859606    -0.092085925179    -0.000028504304     1.007825032230
         C            1.719304859606    -0.007255925179    -1.194748504304    12.000000000000
         H            2.225104859606    -0.032125925179    -2.149148504304     1.007825032230
         C            0.330274859606     0.057944074821    -1.144598504304    12.000000000000
         H           -0.254495140394     0.081544074821    -2.055388504304     1.007825032230

  Charge       = 0
  Multiplicity = 1
  Basis Set: AUG-CC-PVTZ
    Blend: AUG-CC-PVTZ
  Basis Set: (AUG-CC-PVTZ AUX)
    Blend: AUG-CC-PVTZ-JKFIT

    Orbital Energies [Eh]
    ---------------------

    Doubly Occupied:

       1A    -15.566722     2A    -11.275247     3A    -11.275230
       4A    -11.260481     5A    -11.242469     6A    -11.242417
       7A     -1.256674     8A     -1.089781     9A     -1.034701
      10A     -0.859695    11A     -0.856454    12A     -0.722526
      13A     -0.660929    14A     -0.654807    15A     -0.599652
      16A     -0.577309    17A     -0.541451    18A     -0.521018
      19A     -0.418644    20A     -0.383863    21A     -0.348534

  @DF-RHF Final Energy:  -246.77877695352566

   => Energetics <=

    Nuclear Repulsion Energy =            206.2853821170691901
    One-Electron Energy =                -741.3511145991717513
    Two-Electron Energy =                 288.2869555285769252
    Total Energy =                       -246.7787769535256643

  Dipole Moment: [D]
     X:     2.3129      Y:    -0.1172      Z:    -0.0002     Total:     2.3158

    SAPT Results
  --------------------------------------------------------------------------------------------------------
    Electrostatics                 -3.30589621 [mEh]      -2.07448119 [kcal/mol]      -8.67962930 [kJ/mol]
      Elst10,r                     -3.37385058 [mEh]      -2.11712320 [kcal/mol]      -8.85804347 [kJ/mol]
      Elst12,r                      0.06795437 [mEh]       0.04264201 [kcal/mol]       0.17841417 [kJ/mol]

    Exchange                        0.33393276 [mEh]       0.20954597 [kcal/mol]       0.87674035 [kJ/mol]
      Exch10                        0.25072563 [mEh]       0.15733271 [kcal/mol]       0.65828005 [kJ/mol]
      Exch10(S^2)                   0.25065814 [mEh]       0.15729036 [kcal/mol]       0.65810287 [kJ/mol]
      Exch11(S^2)                   0.00001038 [mEh]       0.00000651 [kcal/mol]       0.00002725 [kJ/mol]
      Exch12(S^2)                   0.08319675 [mEh]       0.05220675 [kcal/mol]       0.21843304 [kJ/mol]

    Induction                      -0.33127449 [mEh]      -0.20787788 [kcal/mol]      -0.86976107 [kJ/mol]
      Ind20,r                      -0.31358864 [mEh]      -0.19677984 [kcal/mol]      -0.82332687 [kJ/mol]
      Ind22                        -0.03044950 [mEh]      -0.01910735 [kcal/mol]      -0.07994514 [kJ/mol]
      Exch-Ind20,r                  0.05228249 [mEh]       0.03280776 [kcal/mol]       0.13726766 [kJ/mol]
      Exch-Ind22                    0.00507664 [mEh]       0.00318564 [kcal/mol]       0.01332871 [kJ/mol]
      delta HF,r (2)               -0.04459548 [mEh]      -0.02798409 [kcal/mol]      -0.11708542 [kJ/mol]

    Dispersion                     -0.74347354 [mEh]      -0.46653669 [kcal/mol]      -1.95198950 [kJ/mol]
      Disp20                       -0.67151774 [mEh]      -0.42138374 [kcal/mol]      -1.76306958 [kJ/mol]
      Disp21                        0.06840130 [mEh]       0.04292246 [kcal/mol]       0.17958758 [kJ/mol]
      Disp22 (SDQ)                 -0.01714338 [mEh]      -0.01075763 [kcal/mol]      -0.04500994 [kJ/mol]
      Disp22 (T)                   -0.13776943 [mEh]      -0.08645162 [kcal/mol]      -0.36171358 [kJ/mol]
      Est. Disp22 (T)              -0.15101484 [mEh]      -0.09476324 [kcal/mol]      -0.39648941 [kJ/mol]
      Exch-Disp20                   0.02780113 [mEh]       0.01744547 [kcal/mol]       0.07299185 [kJ/mol]

  Total HF                         -3.42902658 [mEh]      -2.15174666 [kcal/mol]      -9.00290804 [kJ/mol]
  Total SAPT0                      -4.07274319 [mEh]      -2.55568494 [kcal/mol]     -10.69298577 [kJ/mol]
  Total SAPT2                      -3.94695455 [mEh]      -2.47675137 [kcal/mol]     -10.36272775 [kJ/mol]
  Total SAPT2+                     -4.04671148 [mEh]      -2.53934979 [kcal/mol]     -10.62463952 [kJ/mol]

  Special recipe for scaled SAPT0 (see Manual):
    Electrostatics sSAPT0          -3.37385058 [mEh]      -2.11712320 [kcal/mol]      -8.85804347 [kJ/mol]
    Exchange sSAPT0                 0.25072563 [mEh]       0.15733271 [kcal/mol]       0.65828005 [kJ/mol]
    Induction sSAPT0               -0.30585939 [mEh]      -0.19192967 [kcal/mol]      -0.80303373 [kJ/mol]
    Dispersion sSAPT0              -0.64369415 [mEh]      -0.40392418 [kcal/mol]      -1.69001876 [kJ/mol]
  Total sSAPT0                     -4.07267849 [mEh]      -2.55564434 [kcal/mol]     -10.69281590 [kJ/mol]
  --------------------------------------------------------------------------------------------------------

*** Psi4 exiting successfully. Buy a developer a beer!
