                               Psi4 1.4a2.dev224

  ==> Input File <==

--------------------------------------------------------------------------
#Generated by lconvert.py for sapt job

memory 50 GB

molecule  {
0 1
  O      -0.552830   -0.101700   -0.000500
  H      -0.871760    0.801790    0.000140
  H       0.412660   -0.001830   -0.000250
--
0 1
  N       3.003640    0.128900    0.000280
  C       3.699550    0.094920    1.145030
  H       3.114870    0.118540    2.055890
  C       5.088570    0.029740    1.195020
  H       5.594480    0.004890    2.149350
  C       5.799730   -0.003380    0.000110
  H       6.879570   -0.055160    0.000030
  C       5.088420    0.029670   -1.194690
  H       5.594220    0.004800   -2.149090
  C       3.699390    0.094870   -1.144540
  H       3.114630    0.118470   -2.055340
units angstrom
no_reorient
symmetry c1
}

set {
scf_type DF
basis aug-cc-pvtz
freeze_core True
guess SAD
}
energy('sapt2+')
--------------------------------------------------------------------------

  //              Dimer HF             //
    Molecular point group: c1
  Charge       = 0
  Multiplicity = 1
  Basis Set: AUG-CC-PVTZ
    Blend: AUG-CC-PVTZ
  Basis Set: (AUG-CC-PVTZ AUX)
    Blend: AUG-CC-PVTZ-JKFIT
  @DF-RHF Final Energy:  -322.84453627138470
    Total Energy =                       -322.8445362713846976
  //            Monomer A HF           //
    Molecular point group: c1
  Multiplicity = 1
  Basis Set: AUG-CC-PVTZ
    Blend: AUG-CC-PVTZ
  Basis Set: (AUG-CC-PVTZ AUX)
    Blend: AUG-CC-PVTZ-JKFIT
  @DF-RHF Final Energy:   -76.05994224720469
    Total Energy =                        -76.0599422472046740
  //            Monomer B HF           //
    Molecular point group: c1

    Geometry (in Angstrom), charge = 0, multiplicity = 1:

       Center              X                  Y                   Z               Mass
    ------------   -----------------  -----------------  -----------------  -----------------
      Gh(O)          -4.032904544172    -0.144227505432    -0.000580565616    15.994914619570
      Gh(H)          -4.351834544172     0.759262494568     0.000059434384     1.007825032230
      Gh(H)          -3.067414544172    -0.044357505432    -0.000330565616     1.007825032230
         N           -0.476434544172     0.086372494568     0.000199434384    14.003074004430
         C            0.219475455828     0.052392494568     1.144949434384    12.000000000000
         H           -0.365204544172     0.076012494568     2.055809434384     1.007825032230
         C            1.608495455828    -0.012787505432     1.194939434384    12.000000000000
         H            2.114405455828    -0.037637505432     2.149269434384     1.007825032230
         C            2.319655455828    -0.045907505432     0.000029434384    12.000000000000
         H            3.399495455828    -0.097687505432    -0.000050565616     1.007825032230
         C            1.608345455828    -0.012857505432    -1.194770565616    12.000000000000
         H            2.114145455828    -0.037727505432    -2.149170565616     1.007825032230
         C            0.219315455828     0.052342494568    -1.144620565616    12.000000000000
         H           -0.365444544172     0.075942494568    -2.055420565616     1.007825032230

  Charge       = 0
  Multiplicity = 1
  Basis Set: AUG-CC-PVTZ
    Blend: AUG-CC-PVTZ
  Basis Set: (AUG-CC-PVTZ AUX)
    Blend: AUG-CC-PVTZ-JKFIT

    Orbital Energies [Eh]
    ---------------------

    Doubly Occupied:

       1A    -15.566720     2A    -11.275249     3A    -11.275232
       4A    -11.260480     5A    -11.242466     6A    -11.242414
       7A     -1.256673     8A     -1.089782     9A     -1.034700
      10A     -0.859694    11A     -0.856454    12A     -0.722525
      13A     -0.660931    14A     -0.654807    15A     -0.599650
      16A     -0.577307    17A     -0.541452    18A     -0.521018
      19A     -0.418645    20A     -0.383864    21A     -0.348535

  @DF-RHF Final Energy:  -246.77880276648264

   => Energetics <=

    Nuclear Repulsion Energy =            206.2856001935228960
    One-Electron Energy =                -741.3516121674813348
    Two-Electron Energy =                 288.2872092074757688
    Total Energy =                       -246.7788027664826700

  Dipole Moment: [D]
     X:     2.3128      Y:    -0.1172      Z:    -0.0002     Total:     2.3157

    SAPT Results
  --------------------------------------------------------------------------------------------------------
    Electrostatics                 -6.60988053 [mEh]      -4.14776265 [kcal/mol]     -17.35423893 [kJ/mol]
      Elst10,r                     -6.62937787 [mEh]      -4.15999742 [kcal/mol]     -17.40542921 [kJ/mol]
      Elst12,r                      0.01949735 [mEh]       0.01223477 [kcal/mol]       0.05119027 [kJ/mol]

    Exchange                        2.40824725 [mEh]       1.51119796 [kcal/mol]       6.32285228 [kJ/mol]
      Exch10                        1.95944538 [mEh]       1.22957054 [kcal/mol]       5.14452314 [kJ/mol]
      Exch10(S^2)                   1.95609908 [mEh]       1.22747070 [kcal/mol]       5.13573741 [kJ/mol]
      Exch11(S^2)                   0.01959935 [mEh]       0.01229878 [kcal/mol]       0.05145809 [kJ/mol]
      Exch12(S^2)                   0.42920251 [mEh]       0.26932864 [kcal/mol]       1.12687105 [kJ/mol]

    Induction                      -1.23127567 [mEh]      -0.77263715 [kcal/mol]      -3.23271384 [kJ/mol]
      Ind20,r                      -1.28311575 [mEh]      -0.80516729 [kcal/mol]      -3.36881995 [kJ/mol]
      Ind22                        -0.17071731 [mEh]      -0.10712673 [kcal/mol]      -0.44821824 [kJ/mol]
      Exch-Ind20,r                  0.45672518 [mEh]       0.28659938 [kcal/mol]       1.19913179 [kJ/mol]
      Exch-Ind22                    0.06076684 [mEh]       0.03813177 [kcal/mol]       0.15954333 [kJ/mol]
      delta HF,r (2)               -0.29493463 [mEh]      -0.18507428 [kcal/mol]      -0.77435077 [kJ/mol]

    Dispersion                     -1.98208296 [mEh]      -1.24377584 [kcal/mol]      -5.20395809 [kJ/mol]
      Disp20                       -1.87129538 [mEh]      -1.17425558 [kcal/mol]      -4.91308533 [kJ/mol]
      Disp21                        0.14643978 [mEh]       0.09189235 [kcal/mol]       0.38447759 [kJ/mol]
      Disp22 (SDQ)                 -0.04172493 [mEh]      -0.02618279 [kcal/mol]      -0.10954878 [kJ/mol]
      Disp22 (T)                   -0.35143255 [mEh]      -0.22052725 [kcal/mol]      -0.92268602 [kJ/mol]
      Est. Disp22 (T)              -0.39970005 [mEh]      -0.25081557 [kcal/mol]      -1.04941234 [kJ/mol]
      Exch-Disp20                   0.18419761 [mEh]       0.11558575 [kcal/mol]       0.48361076 [kJ/mol]

  Total HF                         -5.79125770 [mEh]      -3.63406907 [kcal/mol]     -15.20494499 [kJ/mol]
  Total SAPT0                      -7.47835546 [mEh]      -4.69273890 [kcal/mol]     -19.63441956 [kJ/mol]
  Total SAPT2                      -7.12000672 [mEh]      -4.46787167 [kcal/mol]     -18.69357506 [kJ/mol]
  Total SAPT2+                     -7.41499191 [mEh]      -4.65297767 [kcal/mol]     -19.46805858 [kJ/mol]

  Special recipe for scaled SAPT0 (see Manual):
    Electrostatics sSAPT0          -6.62937787 [mEh]      -4.15999742 [kcal/mol]     -17.40542921 [kJ/mol]
    Exchange sSAPT0                 1.95944538 [mEh]       1.22957054 [kcal/mol]       5.14452314 [kJ/mol]
    Induction sSAPT0               -1.11897723 [mEh]      -0.70216881 [kcal/mol]      -2.93787431 [kJ/mol]
    Dispersion sSAPT0              -1.68615082 [mEh]      -1.05807562 [kcal/mol]      -4.42698838 [kJ/mol]
  Total sSAPT0                     -7.47506054 [mEh]      -4.69067131 [kcal/mol]     -19.62576875 [kJ/mol]
  --------------------------------------------------------------------------------------------------------

*** Psi4 exiting successfully. Buy a developer a beer!
