                               Psi4 1.4a2.dev224

  ==> Input File <==

--------------------------------------------------------------------------
#Generated by lconvert.py for sapt job

memory 50 GB

molecule  {
0 1
  O      -0.552830   -0.101700   -0.000500
  H      -0.871760    0.801790    0.000140
  H       0.412660   -0.001830   -0.000250
--
0 1
  N       4.199430    0.189230    0.000520
  C       4.895330    0.155260    1.145270
  H       4.310660    0.178870    2.056140
  C       6.284360    0.090080    1.195270
  H       6.790260    0.065220    2.149600
  C       6.995520    0.056950    0.000360
  H       8.075360    0.005180    0.000280
  C       6.284210    0.090010   -1.194440
  H       6.790010    0.065140   -2.148840
  C       4.895180    0.155210   -1.144300
  H       4.310410    0.178810   -2.055090
units angstrom
no_reorient
symmetry c1
}

set {
scf_type DF
basis aug-cc-pvtz
freeze_core True
guess SAD
}
energy('sapt2+')
--------------------------------------------------------------------------

  //              Dimer HF             //
    Molecular point group: c1
  Charge       = 0
  Multiplicity = 1
  Basis Set: AUG-CC-PVTZ
    Blend: AUG-CC-PVTZ
  Basis Set: (AUG-CC-PVTZ AUX)
    Blend: AUG-CC-PVTZ-JKFIT
  @DF-RHF Final Energy:  -322.84072518762957
    Total Energy =                       -322.8407251876295732
  //            Monomer A HF           //
    Molecular point group: c1
  Multiplicity = 1
  Basis Set: AUG-CC-PVTZ
    Blend: AUG-CC-PVTZ
  Basis Set: (AUG-CC-PVTZ AUX)
    Blend: AUG-CC-PVTZ-JKFIT
  @DF-RHF Final Energy:   -76.05990465471577
    Total Energy =                        -76.0599046547157656
  //            Monomer B HF           //
    Molecular point group: c1

    Geometry (in Angstrom), charge = 0, multiplicity = 1:

       Center              X                  Y                   Z               Mass
    ------------   -----------------  -----------------  -----------------  -----------------
      Gh(O)          -5.006784395035    -0.193367024197    -0.000780256158    15.994914619570
      Gh(H)          -5.325714395035     0.710122975803    -0.000140256158     1.007825032230
      Gh(H)          -4.041294395035    -0.093497024197    -0.000530256158     1.007825032230
         N           -0.254524395035     0.097562975803     0.000239743842    14.003074004430
         C            0.441375604965     0.063592975803     1.144989743842    12.000000000000
         H           -0.143294395035     0.087202975803     2.055859743842     1.007825032230
         C            1.830405604965    -0.001587024197     1.194989743842    12.000000000000
         H            2.336305604965    -0.026447024197     2.149319743842     1.007825032230
         C            2.541565604965    -0.034717024197     0.000079743842    12.000000000000
         H            3.621405604965    -0.086487024197    -0.000000256158     1.007825032230
         C            1.830255604965    -0.001657024197    -1.194720256158    12.000000000000
         H            2.336055604965    -0.026527024197    -2.149120256158     1.007825032230
         C            0.441225604965     0.063542975803    -1.144580256158    12.000000000000
         H           -0.143544395035     0.087142975803    -2.055370256158     1.007825032230

  Charge       = 0
  Multiplicity = 1
  Basis Set: AUG-CC-PVTZ
    Blend: AUG-CC-PVTZ
  Basis Set: (AUG-CC-PVTZ AUX)
    Blend: AUG-CC-PVTZ-JKFIT

    Orbital Energies [Eh]
    ---------------------

    Doubly Occupied:

       1A    -15.566715     2A    -11.275247     3A    -11.275230
       4A    -11.260480     5A    -11.242472     6A    -11.242420
       7A     -1.256674     8A     -1.089782     9A     -1.034701
      10A     -0.859694    11A     -0.856457    12A     -0.722526
      13A     -0.660930    14A     -0.654809    15A     -0.599653
      16A     -0.577308    17A     -0.541452    18A     -0.521022
      19A     -0.418641    20A     -0.383865    21A     -0.348533

  @DF-RHF Final Energy:  -246.77876385306141

   => Energetics <=

    Nuclear Repulsion Energy =            206.2855300523885091
    One-Electron Energy =                -741.3513704415989878
    Two-Electron Energy =                 288.2870765361491294
    Total Energy =                       -246.7787638530613776

  Dipole Moment: [D]
     X:     2.3128      Y:    -0.1172      Z:    -0.0002     Total:     2.3158

    SAPT Results
  --------------------------------------------------------------------------------------------------------
    Electrostatics                 -1.92579347 [mEh]      -1.20845365 [kcal/mol]      -5.05617006 [kJ/mol]
      Elst10,r                     -1.98136843 [mEh]      -1.24332746 [kcal/mol]      -5.20208210 [kJ/mol]
      Elst12,r                      0.05557496 [mEh]       0.03487382 [kcal/mol]       0.14591204 [kJ/mol]

    Exchange                        0.04580605 [mEh]       0.02874373 [kcal/mol]       0.12026377 [kJ/mol]
      Exch10                        0.03165840 [mEh]       0.01986595 [kcal/mol]       0.08311912 [kJ/mol]
      Exch10(S^2)                   0.03165709 [mEh]       0.01986513 [kcal/mol]       0.08311569 [kJ/mol]
      Exch11(S^2)                  -0.00027134 [mEh]      -0.00017027 [kcal/mol]      -0.00071240 [kJ/mol]
      Exch12(S^2)                   0.01441899 [mEh]       0.00904805 [kcal/mol]       0.03785706 [kJ/mol]

    Induction                      -0.11212616 [mEh]      -0.07036023 [kcal/mol]      -0.29438720 [kJ/mol]
      Ind20,r                      -0.10539040 [mEh]      -0.06613347 [kcal/mol]      -0.27670245 [kJ/mol]
      Ind22                        -0.00549149 [mEh]      -0.00344596 [kcal/mol]      -0.01441791 [kJ/mol]
      Exch-Ind20,r                  0.00643206 [mEh]       0.00403618 [kcal/mol]       0.01688737 [kJ/mol]
      Exch-Ind22                    0.00033515 [mEh]       0.00021031 [kcal/mol]       0.00087994 [kJ/mol]
      delta HF,r (2)               -0.00801148 [mEh]      -0.00502728 [kcal/mol]      -0.02103415 [kJ/mol]

    Dispersion                     -0.31237988 [mEh]      -0.19602133 [kcal/mol]      -0.82015325 [kJ/mol]
      Disp20                       -0.28254576 [mEh]      -0.17730014 [kcal/mol]      -0.74182380 [kJ/mol]
      Disp21                        0.03760132 [mEh]       0.02359518 [kcal/mol]       0.09872225 [kJ/mol]
      Disp22 (SDQ)                 -0.00676995 [mEh]      -0.00424821 [kcal/mol]      -0.01777451 [kJ/mol]
      Disp22 (T)                   -0.06066106 [mEh]      -0.03806539 [kcal/mol]      -0.15926559 [kJ/mol]
      Est. Disp22 (T)              -0.06468488 [mEh]      -0.04059038 [kcal/mol]      -0.16983014 [kJ/mol]
      Exch-Disp20                   0.00401941 [mEh]       0.00252222 [kcal/mol]       0.01055295 [kJ/mol]

  Total HF                         -2.05667985 [mEh]      -1.29058609 [kcal/mol]      -5.39981221 [kJ/mol]
  Total SAPT0                      -2.33520621 [mEh]      -1.46536402 [kcal/mol]      -6.13108305 [kJ/mol]
  Total SAPT2                      -2.27063993 [mEh]      -1.42484807 [kcal/mol]      -5.96156432 [kJ/mol]
  Total SAPT2+                     -2.30449345 [mEh]      -1.44609147 [kcal/mol]      -6.05044673 [kJ/mol]

  Special recipe for scaled SAPT0 (see Manual):
    Electrostatics sSAPT0          -1.98136843 [mEh]      -1.24332746 [kcal/mol]      -5.20208210 [kJ/mol]
    Exchange sSAPT0                 0.03165840 [mEh]       0.01986595 [kcal/mol]       0.08311912 [kJ/mol]
    Induction sSAPT0               -0.10696902 [mEh]      -0.06712408 [kcal/mol]      -0.28084713 [kJ/mol]
    Dispersion sSAPT0              -0.27852586 [mEh]      -0.17477761 [kcal/mol]      -0.73126954 [kJ/mol]
  Total sSAPT0                     -2.33520491 [mEh]      -1.46536321 [kcal/mol]      -6.13107966 [kJ/mol]
  --------------------------------------------------------------------------------------------------------

*** Psi4 exiting successfully. Buy a developer a beer!
