                               Psi4 1.4a2.dev224

  ==> Input File <==

--------------------------------------------------------------------------
#Generated by lconvert.py for sapt job

memory 50 GB

molecule  {
0 1
  O      -0.627650    0.087470    0.001470
  H       0.343600    0.122300   -0.000600
  C      -0.977930   -1.278560    0.001240
  H      -2.063390   -1.342040    0.005010
  H      -0.614880   -1.806380   -0.885380
  H      -0.608640   -1.808240    0.884170
--
0 1
  N       4.048420   -0.081060   -0.002570
  C       4.744790   -0.105500   -1.147290
  H       4.160310   -0.082270   -2.058270
  C       6.134430   -0.155240   -1.195980
  H       6.641780   -0.172530   -2.149760
  C       6.844800   -0.180950   -0.000370
  H       7.925140   -0.218710    0.000480
  C       6.132550   -0.155930    1.194170
  H       6.638350   -0.173750    2.148660
  C       4.743000   -0.106180    1.143220
  H       4.156990   -0.083500    2.053340
units angstrom
no_reorient
symmetry c1
}

set {
scf_type DF
basis aug-cc-pvtz
freeze_core True
guess SAD
}
energy('sapt2+')
--------------------------------------------------------------------------

  //              Dimer HF             //
    Molecular point group: c1
  Charge       = 0
  Multiplicity = 1
  Basis Set: AUG-CC-PVTZ
    Blend: AUG-CC-PVTZ
  Basis Set: (AUG-CC-PVTZ AUX)
    Blend: AUG-CC-PVTZ-JKFIT
  @DF-RHF Final Energy:  -361.87230503033066
    Total Energy =                       -361.8723050303306650
  //            Monomer A HF           //
    Molecular point group: c1
  Multiplicity = 1
  Basis Set: AUG-CC-PVTZ
    Blend: AUG-CC-PVTZ
  Basis Set: (AUG-CC-PVTZ AUX)
    Blend: AUG-CC-PVTZ-JKFIT
  @DF-RHF Final Energy:  -115.09136324129584
    Total Energy =                       -115.0913632412958378
  //            Monomer B HF           //
    Molecular point group: c1

    Geometry (in Angstrom), charge = 0, multiplicity = 1:

       Center              X                  Y                   Z               Mass
    ------------   -----------------  -----------------  -----------------  -----------------
      Gh(O)          -4.273133229638     0.349767805593     0.002144933241    15.994914619570
      Gh(H)          -3.301883229638     0.384597805593     0.000074933241     1.007825032230
      Gh(C)          -4.623413229638    -1.016262194407     0.001914933241    12.000000000000
      Gh(H)          -5.708873229638    -1.079742194407     0.005684933241     1.007825032230
      Gh(H)          -4.260363229638    -1.544082194407    -0.884705066759     1.007825032230
      Gh(H)          -4.254123229638    -1.545942194407     0.884844933241     1.007825032230
         N            0.402936770362     0.181237805593    -0.001895066759    14.003074004430
         C            1.099306770362     0.156797805593    -1.146615066759    12.000000000000
         H            0.514826770362     0.180027805593    -2.057595066759     1.007825032230
         C            2.488946770362     0.107057805593    -1.195305066759    12.000000000000
         H            2.996296770362     0.089767805593    -2.149085066759     1.007825032230
         C            3.199316770362     0.081347805593     0.000304933241    12.000000000000
         H            4.279656770362     0.043587805593     0.001154933241     1.007825032230
         C            2.487066770362     0.106367805593     1.194844933241    12.000000000000
         H            2.992866770362     0.088547805593     2.149334933241     1.007825032230
         C            1.097516770362     0.156117805593     1.143894933241    12.000000000000
         H            0.511506770362     0.178797805593     2.054014933241     1.007825032230

  Charge       = 0
  Multiplicity = 1
  Basis Set: AUG-CC-PVTZ
    Blend: AUG-CC-PVTZ
  Basis Set: (AUG-CC-PVTZ AUX)
    Blend: AUG-CC-PVTZ-JKFIT

    Orbital Energies [Eh]
    ---------------------

    Doubly Occupied:

       1A    -15.566642     2A    -11.275252     3A    -11.275235
       4A    -11.260448     5A    -11.242474     6A    -11.242421
       7A     -1.256609     8A     -1.089684     9A     -1.034763
      10A     -0.859651    11A     -0.856472    12A     -0.722522
      13A     -0.660915    14A     -0.654824    15A     -0.599769
      16A     -0.577238    17A     -0.541425    18A     -0.521085
      19A     -0.418476    20A     -0.383787    21A     -0.348574

  @DF-RHF Final Energy:  -246.77876532981503

   => Energetics <=

    Nuclear Repulsion Energy =            206.2843073755037722
    One-Electron Energy =                -741.3496119886408451
    Two-Electron Energy =                 288.2865392833220426
    Total Energy =                       -246.7787653298150303

  Dipole Moment: [D]
     X:     2.3126      Y:    -0.0789      Z:     0.0017     Total:     2.3139

    SAPT Results
  --------------------------------------------------------------------------------------------------------
    Electrostatics                 -2.02215955 [mEh]      -1.26892427 [kcal/mol]      -5.30917916 [kJ/mol]
      Elst10,r                     -2.08372308 [mEh]      -1.30755597 [kcal/mol]      -5.47081418 [kJ/mol]
      Elst12,r                      0.06156353 [mEh]       0.03863170 [kcal/mol]       0.16163503 [kJ/mol]

    Exchange                        0.06289895 [mEh]       0.03946969 [kcal/mol]       0.16514117 [kJ/mol]
      Exch10                        0.04347465 [mEh]       0.02728075 [kcal/mol]       0.11414267 [kJ/mol]
      Exch10(S^2)                   0.04347224 [mEh]       0.02727924 [kcal/mol]       0.11413635 [kJ/mol]
      Exch11(S^2)                  -0.00074398 [mEh]      -0.00046685 [kcal/mol]      -0.00195331 [kJ/mol]
      Exch12(S^2)                   0.02016828 [mEh]       0.01265579 [kcal/mol]       0.05295182 [kJ/mol]

    Induction                      -0.14328737 [mEh]      -0.08991418 [kcal/mol]      -0.37620095 [kJ/mol]
      Ind20,r                      -0.13378462 [mEh]      -0.08395112 [kcal/mol]      -0.35125148 [kJ/mol]
      Ind22                        -0.00762433 [mEh]      -0.00478434 [kcal/mol]      -0.02001766 [kJ/mol]
      Exch-Ind20,r                  0.00961126 [mEh]       0.00603116 [kcal/mol]       0.02523435 [kJ/mol]
      Exch-Ind22                    0.00054774 [mEh]       0.00034371 [kcal/mol]       0.00143809 [kJ/mol]
      delta HF,r (2)               -0.01203742 [mEh]      -0.00755360 [kcal/mol]      -0.03160425 [kJ/mol]

    Dispersion                     -0.48906666 [mEh]      -0.30689396 [kcal/mol]      -1.28404433 [kJ/mol]
      Disp20                       -0.45870770 [mEh]      -0.28784342 [kcal/mol]      -1.20433689 [kJ/mol]
      Disp21                        0.07198495 [mEh]       0.04517124 [kcal/mol]       0.18899645 [kJ/mol]
      Disp22 (SDQ)                 -0.00558162 [mEh]      -0.00350252 [kcal/mol]      -0.01465453 [kJ/mol]
      Disp22 (T)                   -0.09770272 [mEh]      -0.06130938 [kcal/mol]      -0.25651846 [kJ/mol]
      Est. Disp22 (T)              -0.10298849 [mEh]      -0.06462625 [kcal/mol]      -0.27039623 [kJ/mol]
      Exch-Disp20                   0.00622619 [mEh]       0.00390699 [kcal/mol]       0.01634686 [kJ/mol]

  Total HF                         -2.17645922 [mEh]      -1.36574878 [kcal/mol]      -5.71429289 [kJ/mol]
  Total SAPT0                      -2.62894072 [mEh]      -1.64968521 [kcal/mol]      -6.90228292 [kJ/mol]
  Total SAPT2                      -2.55502947 [mEh]      -1.60330520 [kcal/mol]      -6.70822895 [kJ/mol]
  Total SAPT2+                     -2.59161463 [mEh]      -1.62626273 [kcal/mol]      -6.80428326 [kJ/mol]

  Special recipe for scaled SAPT0 (see Manual):
    Electrostatics sSAPT0          -2.08372308 [mEh]      -1.30755597 [kcal/mol]      -5.47081418 [kJ/mol]
    Exchange sSAPT0                 0.04347465 [mEh]       0.02728075 [kcal/mol]       0.11414267 [kJ/mol]
    Induction sSAPT0               -0.13620919 [mEh]      -0.08547256 [kcal/mol]      -0.35761718 [kJ/mol]
    Dispersion sSAPT0              -0.45248047 [mEh]      -0.28393578 [kcal/mol]      -1.18798731 [kJ/mol]
  Total sSAPT0                     -2.62893809 [mEh]      -1.64968356 [kcal/mol]      -6.90227601 [kJ/mol]
  --------------------------------------------------------------------------------------------------------

*** Psi4 exiting successfully. Buy a developer a beer!
