                               Psi4 1.4a2.dev224

  ==> Input File <==

--------------------------------------------------------------------------
#Generated by lconvert.py for sapt job

memory 50 GB

molecule  {
0 1
  O      -0.627650    0.087470    0.001470
  H       0.343600    0.122300   -0.000600
  C      -0.977930   -1.278560    0.001240
  H      -2.063390   -1.342040    0.005010
  H      -0.614880   -1.806380   -0.885380
  H      -0.608640   -1.808240    0.884170
--
0 1
  N       2.878510   -0.016840   -0.001950
  C       3.574880   -0.041280   -1.146670
  H       2.990400   -0.018050   -2.057640
  C       4.964520   -0.091020   -1.195350
  H       5.471870   -0.108310   -2.149140
  C       5.674890   -0.116730    0.000260
  H       6.755230   -0.154500    0.001110
  C       4.962640   -0.091710    1.194800
  H       5.468440   -0.109540    2.149280
  C       3.573090   -0.041960    1.143840
  H       2.987080   -0.019290    2.053960
units angstrom
no_reorient
symmetry c1
}

set {
scf_type DF
basis aug-cc-pvtz
freeze_core True
guess SAD
}
energy('sapt2+')
--------------------------------------------------------------------------

  //              Dimer HF             //
    Molecular point group: c1
  Charge       = 0
  Multiplicity = 1
  Basis Set: AUG-CC-PVTZ
    Blend: AUG-CC-PVTZ
  Basis Set: (AUG-CC-PVTZ AUX)
    Blend: AUG-CC-PVTZ-JKFIT
  @DF-RHF Final Energy:  -361.87619626472940
    Total Energy =                       -361.8761962647294013
  //            Monomer A HF           //
    Molecular point group: c1
  Multiplicity = 1
  Basis Set: AUG-CC-PVTZ
    Blend: AUG-CC-PVTZ
  Basis Set: (AUG-CC-PVTZ AUX)
    Blend: AUG-CC-PVTZ-JKFIT
  @DF-RHF Final Energy:  -115.09140561739655
    Total Energy =                       -115.0914056173965463
  //            Monomer B HF           //
    Molecular point group: c1

    Geometry (in Angstrom), charge = 0, multiplicity = 1:

       Center              X                  Y                   Z               Mass
    ------------   -----------------  -----------------  -----------------  -----------------
      Gh(O)          -3.440562960854     0.304065705268     0.001700285494    15.994914619570
      Gh(H)          -2.469312960854     0.338895705268    -0.000369714506     1.007825032230
      Gh(C)          -3.790842960854    -1.061964294732     0.001470285494    12.000000000000
      Gh(H)          -4.876302960854    -1.125444294732     0.005240285494     1.007825032230
      Gh(H)          -3.427792960854    -1.589784294732    -0.885149714506     1.007825032230
      Gh(H)          -3.421552960854    -1.591644294732     0.884400285494     1.007825032230
         N            0.065597039146     0.199755705268    -0.001719714506    14.003074004430
         C            0.761967039146     0.175315705268    -1.146439714506    12.000000000000
         H            0.177487039146     0.198545705268    -2.057409714506     1.007825032230
         C            2.151607039146     0.125575705268    -1.195119714506    12.000000000000
         H            2.658957039146     0.108285705268    -2.148909714506     1.007825032230
         C            2.861977039146     0.099865705268     0.000490285494    12.000000000000
         H            3.942317039146     0.062095705268     0.001340285494     1.007825032230
         C            2.149727039146     0.124885705268     1.195030285494    12.000000000000
         H            2.655527039146     0.107055705268     2.149510285494     1.007825032230
         C            0.760177039146     0.174635705268     1.144070285494    12.000000000000
         H            0.174167039146     0.197305705268     2.054190285494     1.007825032230

  Charge       = 0
  Multiplicity = 1
  Basis Set: AUG-CC-PVTZ
    Blend: AUG-CC-PVTZ
  Basis Set: (AUG-CC-PVTZ AUX)
    Blend: AUG-CC-PVTZ-JKFIT

    Orbital Energies [Eh]
    ---------------------

    Doubly Occupied:

       1A    -15.566647     2A    -11.275254     3A    -11.275236
       4A    -11.260448     5A    -11.242468     6A    -11.242415
       7A     -1.256607     8A     -1.089684     9A     -1.034761
      10A     -0.859649    11A     -0.856470    12A     -0.722521
      13A     -0.660914    14A     -0.654824    15A     -0.599766
      16A     -0.577237    17A     -0.541425    18A     -0.521082
      19A     -0.418479    20A     -0.383788    21A     -0.348575

  @DF-RHF Final Energy:  -246.77881524933403

   => Energetics <=

    Nuclear Repulsion Energy =            206.2843469486970491
    One-Electron Energy =                -741.3498226380266942
    Two-Electron Energy =                 288.2866604399956145
    Total Energy =                       -246.7788152493340590

  Dipole Moment: [D]
     X:     2.3125      Y:    -0.0789      Z:     0.0017     Total:     2.3139

    SAPT Results
  --------------------------------------------------------------------------------------------------------
    Electrostatics                 -7.07111639 [mEh]      -4.43719253 [kcal/mol]     -18.56521353 [kJ/mol]
      Elst10,r                     -7.06212332 [mEh]      -4.43154929 [kcal/mol]     -18.54160223 [kJ/mol]
      Elst12,r                     -0.00899307 [mEh]      -0.00564324 [kcal/mol]      -0.02361130 [kJ/mol]

    Exchange                        3.01672074 [mEh]       1.89302084 [kcal/mol]       7.92039921 [kJ/mol]
      Exch10                        2.44817172 [mEh]       1.53625095 [kcal/mol]       6.42767398 [kJ/mol]
      Exch10(S^2)                   2.44305889 [mEh]       1.53304260 [kcal/mol]       6.41425022 [kJ/mol]
      Exch11(S^2)                   0.01617412 [mEh]       0.01014941 [kcal/mol]       0.04246515 [kJ/mol]
      Exch12(S^2)                   0.55237490 [mEh]       0.34662048 [kcal/mol]       1.45026009 [kJ/mol]

    Induction                      -1.50371588 [mEh]      -0.94359596 [kcal/mol]      -3.94800549 [kJ/mol]
      Ind20,r                      -1.59878686 [mEh]      -1.00325390 [kcal/mol]      -4.19761432 [kJ/mol]
      Ind22                        -0.23290592 [mEh]      -0.14615067 [kcal/mol]      -0.61149440 [kJ/mol]
      Exch-Ind20,r                  0.62217550 [mEh]       0.39042102 [kcal/mol]       1.63352156 [kJ/mol]
      Exch-Ind22                    0.09063644 [mEh]       0.05687523 [kcal/mol]       0.23796595 [kJ/mol]
      delta HF,r (2)               -0.38483505 [mEh]      -0.24148764 [kcal/mol]      -1.01038427 [kJ/mol]

    Dispersion                     -2.72804664 [mEh]      -1.71187511 [kcal/mol]      -7.16248548 [kJ/mol]
      Disp20                       -2.63899984 [mEh]      -1.65599740 [kcal/mol]      -6.92869313 [kJ/mol]
      Disp21                        0.26527019 [mEh]       0.16645956 [kcal/mol]       0.69646679 [kJ/mol]
      Disp22 (SDQ)                 -0.04195310 [mEh]      -0.02632597 [kcal/mol]      -0.11014785 [kJ/mol]
      Disp22 (T)                   -0.50103155 [mEh]      -0.31440204 [kcal/mol]      -1.31545815 [kJ/mol]
      Est. Disp22 (T)              -0.56247492 [mEh]      -0.35295834 [kcal/mol]      -1.47677769 [kJ/mol]
      Exch-Disp20                   0.25011102 [mEh]       0.15694704 [kcal/mol]       0.65666640 [kJ/mol]

  Total HF                         -5.97539800 [mEh]      -3.74961885 [kcal/mol]     -15.68840528 [kJ/mol]
  Total SAPT0                      -8.36428682 [mEh]      -5.24866922 [kcal/mol]     -21.96043201 [kJ/mol]
  Total SAPT2                      -7.94700035 [mEh]      -4.98681800 [kcal/mol]     -20.86484653 [kJ/mol]
  Total SAPT2+                     -8.28615817 [mEh]      -5.19964275 [kcal/mol]     -21.75530528 [kJ/mol]

  Special recipe for scaled SAPT0 (see Manual):
    Electrostatics sSAPT0          -7.06212332 [mEh]      -4.43154929 [kcal/mol]     -18.54160223 [kJ/mol]
    Exchange sSAPT0                 2.44817172 [mEh]       1.53625095 [kcal/mol]       6.42767398 [kJ/mol]
    Induction sSAPT0               -1.35753195 [mEh]      -0.85186416 [kcal/mol]      -3.56419965 [kJ/mol]
    Dispersion sSAPT0              -2.38731523 [mEh]      -1.49806292 [kcal/mol]      -6.26789528 [kJ/mol]
  Total sSAPT0                     -8.35879878 [mEh]      -5.24522542 [kcal/mol]     -21.94602317 [kJ/mol]
  --------------------------------------------------------------------------------------------------------

*** Psi4 exiting successfully. Buy a developer a beer!
