                               Psi4 1.4a2.dev224

  ==> Input File <==

--------------------------------------------------------------------------
#Generated by lconvert.py for sapt job

memory 50 GB

molecule  {
0 1
  O      -0.627650    0.087470    0.001470
  H       0.343600    0.122300   -0.000600
  C      -0.977930   -1.278560    0.001240
  H      -2.063390   -1.342040    0.005010
  H      -0.614880   -1.806380   -0.885380
  H      -0.608640   -1.808240    0.884170
--
0 1
  N       3.463470   -0.048950   -0.002260
  C       4.159840   -0.073390   -1.146980
  H       3.575360   -0.050160   -2.057960
  C       5.549470   -0.123130   -1.195670
  H       6.056820   -0.140420   -2.149450
  C       6.259850   -0.148840   -0.000050
  H       7.340180   -0.186610    0.000800
  C       5.547600   -0.123820    1.194490
  H       6.053400   -0.141640    2.148970
  C       4.158050   -0.074070    1.143530
  H       3.572040   -0.051400    2.053650
units angstrom
no_reorient
symmetry c1
}

set {
scf_type DF
basis aug-cc-pvtz
freeze_core True
guess SAD
}
energy('sapt2+')
--------------------------------------------------------------------------

  //              Dimer HF             //
    Molecular point group: c1
  Charge       = 0
  Multiplicity = 1
  Basis Set: AUG-CC-PVTZ
    Blend: AUG-CC-PVTZ
  Basis Set: (AUG-CC-PVTZ AUX)
    Blend: AUG-CC-PVTZ-JKFIT
  @DF-RHF Final Energy:  -361.87376834559637
    Total Energy =                       -361.8737683455963747
  //            Monomer A HF           //
    Molecular point group: c1
  Multiplicity = 1
  Basis Set: AUG-CC-PVTZ
    Blend: AUG-CC-PVTZ
  Basis Set: (AUG-CC-PVTZ AUX)
    Blend: AUG-CC-PVTZ-JKFIT
  @DF-RHF Final Energy:  -115.09137742198023
    Total Energy =                       -115.0913774219802264
  //            Monomer B HF           //
    Molecular point group: c1

    Geometry (in Angstrom), charge = 0, multiplicity = 1:

       Center              X                  Y                   Z               Mass
    ------------   -----------------  -----------------  -----------------  -----------------
      Gh(O)          -3.856850391619     0.326916800800     0.001922069160    15.994914619570
      Gh(H)          -2.885600391619     0.361746800800    -0.000147930840     1.007825032230
      Gh(C)          -4.207130391619    -1.039113199200     0.001692069160    12.000000000000
      Gh(H)          -5.292590391619    -1.102593199200     0.005462069160     1.007825032230
      Gh(H)          -3.844080391619    -1.566933199200    -0.884927930840     1.007825032230
      Gh(H)          -3.837840391619    -1.568793199200     0.884622069160     1.007825032230
         N            0.234269608381     0.190496800800    -0.001807930840    14.003074004430
         C            0.930639608381     0.166056800800    -1.146527930840    12.000000000000
         H            0.346159608381     0.189286800800    -2.057507930840     1.007825032230
         C            2.320269608381     0.116316800800    -1.195217930840    12.000000000000
         H            2.827619608381     0.099026800800    -2.148997930840     1.007825032230
         C            3.030649608381     0.090606800800     0.000402069160    12.000000000000
         H            4.110979608381     0.052836800800     0.001252069160     1.007825032230
         C            2.318399608381     0.115626800800     1.194942069160    12.000000000000
         H            2.824199608381     0.097806800800     2.149422069160     1.007825032230
         C            0.928849608381     0.165376800800     1.143982069160    12.000000000000
         H            0.342839608381     0.188046800800     2.054102069160     1.007825032230

  Charge       = 0
  Multiplicity = 1
  Basis Set: AUG-CC-PVTZ
    Blend: AUG-CC-PVTZ
  Basis Set: (AUG-CC-PVTZ AUX)
    Blend: AUG-CC-PVTZ-JKFIT

    Orbital Energies [Eh]
    ---------------------

    Doubly Occupied:

       1A    -15.566647     2A    -11.275252     3A    -11.275233
       4A    -11.260449     5A    -11.242470     6A    -11.242417
       7A     -1.256610     8A     -1.089682     9A     -1.034764
      10A     -0.859652    11A     -0.856470    12A     -0.722522
      13A     -0.660913    14A     -0.654825    15A     -0.599770
      16A     -0.577239    17A     -0.541425    18A     -0.521083
      19A     -0.418478    20A     -0.383785    21A     -0.348575

  @DF-RHF Final Energy:  -246.77878417909284

   => Energetics <=

    Nuclear Repulsion Energy =            206.2843155171908052
    One-Electron Energy =                -741.3496780557831016
    Two-Electron Energy =                 288.2865783594995150
    Total Energy =                       -246.7787841790928383

  Dipole Moment: [D]
     X:     2.3126      Y:    -0.0789      Z:     0.0018     Total:     2.3139

    SAPT Results
  --------------------------------------------------------------------------------------------------------
    Electrostatics                 -3.48252907 [mEh]      -2.18531999 [kcal/mol]      -9.14337883 [kJ/mol]
      Elst10,r                     -3.55447246 [mEh]      -2.23046515 [kcal/mol]      -9.33226617 [kJ/mol]
      Elst12,r                      0.07194339 [mEh]       0.04514516 [kcal/mol]       0.18888734 [kJ/mol]

    Exchange                        0.43868362 [mEh]       0.27527813 [kcal/mol]       1.15176369 [kJ/mol]
      Exch10                        0.32885960 [mEh]       0.20636251 [kcal/mol]       0.86342075 [kJ/mol]
      Exch10(S^2)                   0.32874615 [mEh]       0.20629132 [kcal/mol]       0.86312290 [kJ/mol]
      Exch11(S^2)                  -0.00183269 [mEh]      -0.00115003 [kcal/mol]      -0.00481174 [kJ/mol]
      Exch12(S^2)                   0.11165672 [mEh]       0.07006565 [kcal/mol]       0.29315467 [kJ/mol]

    Induction                      -0.41513413 [mEh]      -0.26050060 [kcal/mol]      -1.08993450 [kJ/mol]
      Ind20,r                      -0.39460576 [mEh]      -0.24761885 [kcal/mol]      -1.03603728 [kJ/mol]
      Ind22                        -0.04201398 [mEh]      -0.02636417 [kcal/mol]      -0.11030769 [kJ/mol]
      Exch-Ind20,r                  0.07524609 [mEh]       0.04721764 [kcal/mol]       0.19755859 [kJ/mol]
      Exch-Ind22                    0.00801151 [mEh]       0.00502730 [kcal/mol]       0.02103422 [kJ/mol]
      delta HF,r (2)               -0.06177199 [mEh]      -0.03876251 [kcal/mol]      -0.16218234 [kJ/mol]

    Dispersion                     -1.09508877 [mEh]      -0.68717858 [kcal/mol]      -2.87515518 [kJ/mol]
      Disp20                       -1.02143958 [mEh]      -0.64096301 [kcal/mol]      -2.68178925 [kJ/mol]
      Disp21                        0.12862475 [mEh]       0.08071325 [kcal/mol]       0.33770424 [kJ/mol]
      Disp22 (SDQ)                 -0.01615657 [mEh]      -0.01013840 [kcal/mol]      -0.04241906 [kJ/mol]
      Disp22 (T)                   -0.20942569 [mEh]      -0.13141661 [kcal/mol]      -0.54984708 [kJ/mol]
      Est. Disp22 (T)              -0.22646980 [mEh]      -0.14211194 [kcal/mol]      -0.59459637 [kJ/mol]
      Exch-Disp20                   0.04035242 [mEh]       0.02532153 [kcal/mol]       0.10594526 [kJ/mol]

  Total HF                         -3.60674452 [mEh]      -2.26326636 [kcal/mol]      -9.46950644 [kJ/mol]
  Total SAPT0                      -4.58783169 [mEh]      -2.87890785 [kcal/mol]     -12.04535043 [kJ/mol]
  Total SAPT2                      -4.44006674 [mEh]      -2.78618395 [kcal/mol]     -11.65739363 [kJ/mol]
  Total SAPT2+                     -4.55406835 [mEh]      -2.85772104 [kcal/mol]     -11.95670482 [kJ/mol]

  Special recipe for scaled SAPT0 (see Manual):
    Electrostatics sSAPT0          -3.55447246 [mEh]      -2.23046515 [kcal/mol]      -9.33226617 [kJ/mol]
    Exchange sSAPT0                 0.32885960 [mEh]       0.20636251 [kcal/mol]       0.86342075 [kJ/mol]
    Induction sSAPT0               -0.38105373 [mEh]      -0.23911482 [kcal/mol]      -1.00045643 [kJ/mol]
    Dispersion sSAPT0              -0.98104537 [mEh]      -0.61561527 [kcal/mol]      -2.57573427 [kJ/mol]
  Total sSAPT0                     -4.58771197 [mEh]      -2.87883272 [kcal/mol]     -12.04503611 [kJ/mol]
  --------------------------------------------------------------------------------------------------------

*** Psi4 exiting successfully. Buy a developer a beer!
