                               Psi4 1.4a2.dev224

  ==> Input File <==

--------------------------------------------------------------------------
#Generated by lconvert.py for sapt job

memory 50 GB

molecule  {
0 1
  C      -1.061710    1.297140    0.292060
  O      -0.358160    2.270460    0.531810
  O      -0.589300    0.094920    0.003790
  H       0.404440    0.127720    0.018410
  C      -2.558430    1.342550    0.296260
  H      -2.896000    2.347460    0.518320
  H      -2.932890    1.022390   -0.673000
  H      -2.937210    0.644910    1.039560
--
0 1
  C       4.322020    1.115250    0.282810
  O       3.618410    0.141930    0.043030
  O       3.849600    2.317680    0.570590
  H       2.855810    2.284780    0.556190
  C       5.818740    1.069340    0.280850
  H       6.156320    0.068020    0.043320
  H       6.200240    1.779700   -0.448620
  H       6.190250    1.372040    1.256900
units angstrom
no_reorient
symmetry c1
}

set {
scf_type DF
basis aug-cc-pvtz
freeze_core True
guess SAD
}
energy('sapt2+')
--------------------------------------------------------------------------

  //              Dimer HF             //
    Molecular point group: c1
  Charge       = 0
  Multiplicity = 1
  Basis Set: AUG-CC-PVTZ
    Blend: AUG-CC-PVTZ
  Basis Set: (AUG-CC-PVTZ AUX)
    Blend: AUG-CC-PVTZ-JKFIT
  @DF-RHF Final Energy:  -455.81202946178325
    Total Energy =                       -455.8120294617832542
  //            Monomer A HF           //
    Molecular point group: c1
  Multiplicity = 1
  Basis Set: AUG-CC-PVTZ
    Blend: AUG-CC-PVTZ
  Basis Set: (AUG-CC-PVTZ AUX)
    Blend: AUG-CC-PVTZ-JKFIT
  @DF-RHF Final Energy:  -227.90265801328994
    Total Energy =                       -227.9026580132899369
  //            Monomer B HF           //
    Molecular point group: c1

    Geometry (in Angstrom), charge = 0, multiplicity = 1:

       Center              X                  Y                   Z               Mass
    ------------   -----------------  -----------------  -----------------  -----------------
      Gh(C)          -2.691853322154     0.090988325938     0.004372976962    12.000000000000
      Gh(O)          -1.988303322154     1.064308325938     0.244122976962    15.994914619570
      Gh(O)          -2.219443322154    -1.111231674062    -0.283897023038    15.994914619570
      Gh(H)          -1.225703322154    -1.078431674062    -0.269277023038     1.007825032230
      Gh(C)          -4.188573322154     0.136398325938     0.008572976962    12.000000000000
      Gh(H)          -4.526143322154     1.141308325938     0.230632976962     1.007825032230
      Gh(H)          -4.563033322154    -0.183761674062    -0.960687023038     1.007825032230
      Gh(H)          -4.567353322154    -0.561241674062     0.751872976962     1.007825032230
         C            2.691876677846    -0.090901674062    -0.004877023038    12.000000000000
         O            1.988266677846    -1.064221674062    -0.244657023038    15.994914619570
         O            2.219456677846     1.111528325938     0.282902976962    15.994914619570
         H            1.225666677846     1.078628325938     0.268502976962     1.007825032230
         C            4.188596677846    -0.136811674062    -0.006837023038    12.000000000000
         H            4.526176677846    -1.138131674062    -0.244367023038     1.007825032230
         H            4.570096677846     0.573548325938    -0.736307023038     1.007825032230
         H            4.560106677846     0.165888325938     0.969212976962     1.007825032230

  Charge       = 0
  Multiplicity = 1
  Basis Set: AUG-CC-PVTZ
    Blend: AUG-CC-PVTZ
  Basis Set: (AUG-CC-PVTZ AUX)
    Blend: AUG-CC-PVTZ-JKFIT

    Orbital Energies [Eh]
    ---------------------

    Doubly Occupied:

       1A    -20.625061     2A    -20.545298     3A    -11.389432
       4A    -11.243646     5A     -1.471758     6A     -1.354690
       7A     -1.028801     8A     -0.833706     9A     -0.705229
      10A     -0.682434    11A     -0.656301    12A     -0.580205
      13A     -0.572730    14A     -0.565089    15A     -0.477866
      16A     -0.452431

  @DF-RHF Final Energy:  -227.90264972472409

   => Energetics <=

    Nuclear Repulsion Energy =            121.3504364814108385
    One-Electron Energy =                -552.1368191514643513
    Two-Electron Energy =                 202.8837329453294274
    Total Energy =                       -227.9026497247240854

  Dipole Moment: [D]
     X:     1.1156      Y:     1.8782      Z:     0.4604     Total:     2.2325

    SAPT Results
  --------------------------------------------------------------------------------------------------------
    Electrostatics                 -5.54011257 [mEh]      -3.47647312 [kcal/mol]     -14.54556355 [kJ/mol]
      Elst10,r                     -6.47455811 [mEh]      -4.06284655 [kcal/mol]     -16.99894996 [kJ/mol]
      Elst12,r                      0.93444553 [mEh]       0.58637343 [kcal/mol]       2.45338641 [kJ/mol]

    Exchange                        0.38587531 [mEh]       0.24214041 [kcal/mol]       1.01311549 [kJ/mol]
      Exch10                        0.26095741 [mEh]       0.16375325 [kcal/mol]       0.68514358 [kJ/mol]
      Exch10(S^2)                   0.26089654 [mEh]       0.16371505 [kcal/mol]       0.68498376 [kJ/mol]
      Exch11(S^2)                  -0.00237318 [mEh]      -0.00148919 [kcal/mol]      -0.00623077 [kJ/mol]
      Exch12(S^2)                   0.12729108 [mEh]       0.07987636 [kcal/mol]       0.33420268 [kJ/mol]

    Induction                      -0.54621611 [mEh]      -0.34275579 [kcal/mol]      -1.43409021 [kJ/mol]
      Ind20,r                      -0.50490463 [mEh]      -0.31683244 [kcal/mol]      -1.32562692 [kJ/mol]
      Ind22                        -0.04288273 [mEh]      -0.02690932 [kcal/mol]      -0.11258858 [kJ/mol]
      Exch-Ind20,r                  0.05639414 [mEh]       0.03538786 [kcal/mol]       0.14806281 [kJ/mol]
      Exch-Ind22                    0.00478969 [mEh]       0.00300557 [kcal/mol]       0.01257532 [kJ/mol]
      delta HF,r (2)               -0.05961259 [mEh]      -0.03740747 [kcal/mol]      -0.15651283 [kJ/mol]

    Dispersion                     -1.16362960 [mEh]      -0.73018860 [kcal/mol]      -3.05510911 [kJ/mol]
      Disp20                       -0.98716135 [mEh]      -0.61945310 [kcal/mol]      -2.59179178 [kJ/mol]
      Disp21                        0.07139158 [mEh]       0.04479889 [kcal/mol]       0.18743856 [kJ/mol]
      Disp22 (SDQ)                 -0.04412643 [mEh]      -0.02768975 [kcal/mol]      -0.11585393 [kJ/mol]
      Disp22 (T)                   -0.21775213 [mEh]      -0.13664152 [kcal/mol]      -0.57170814 [kJ/mol]
      Est. Disp22 (T)              -0.23357604 [mEh]      -0.14657118 [kcal/mol]      -0.61325381 [kJ/mol]
      Exch-Disp20                   0.02984264 [mEh]       0.01872654 [kcal/mol]       0.07835185 [kJ/mol]

  Total HF                         -6.72172377 [mEh]      -4.21794535 [kcal/mol]     -17.64788332 [kJ/mol]
  Total SAPT0                      -7.67904248 [mEh]      -4.81867190 [kcal/mol]     -20.16132325 [kJ/mol]
  Total SAPT2                      -6.65777208 [mEh]      -4.17781506 [kcal/mol]     -17.47997819 [kJ/mol]
  Total SAPT2+                     -6.86408298 [mEh]      -4.30727710 [kcal/mol]     -18.02164737 [kJ/mol]

  Special recipe for scaled SAPT0 (see Manual):
    Electrostatics sSAPT0          -6.47455811 [mEh]      -4.06284655 [kcal/mol]     -16.99894996 [kJ/mol]
    Exchange sSAPT0                 0.26095741 [mEh]       0.16375325 [kcal/mol]       0.68514358 [kJ/mol]
    Induction sSAPT0               -0.50808359 [mEh]      -0.31882727 [kcal/mol]      -1.33397328 [kJ/mol]
    Dispersion sSAPT0              -0.95729782 [mEh]      -0.60071345 [kcal/mol]      -2.51338507 [kJ/mol]
  Total sSAPT0                     -7.67898210 [mEh]      -4.81863402 [kcal/mol]     -20.16116473 [kJ/mol]
  --------------------------------------------------------------------------------------------------------

*** Psi4 exiting successfully. Buy a developer a beer!
