                               Psi4 1.4a2.dev224

  ==> Input File <==

--------------------------------------------------------------------------
#Generated by lconvert.py for sapt job

memory 50 GB

molecule  {
0 1
  C      -1.061710    1.297140    0.292060
  O      -0.358160    2.270460    0.531810
  O      -0.589300    0.094920    0.003790
  H       0.404440    0.127720    0.018410
  C      -2.558430    1.342550    0.296260
  H      -2.896000    2.347460    0.518320
  H      -2.932890    1.022390   -0.673000
  H      -2.937210    0.644910    1.039560
--
0 1
  C       3.307120    1.110720    0.275120
  O       2.603500    0.137410    0.035330
  O       2.834690    2.313160    0.562900
  H       1.840900    2.280260    0.548500
  C       4.803830    1.064820    0.273160
  H       5.141410    0.063500    0.035630
  H       5.185330    1.775170   -0.456310
  H       5.175350    1.367510    1.249210
units angstrom
no_reorient
symmetry c1
}

set {
scf_type DF
basis aug-cc-pvtz
freeze_core True
guess SAD
}
energy('sapt2+')
--------------------------------------------------------------------------

  //              Dimer HF             //
    Molecular point group: c1
  Charge       = 0
  Multiplicity = 1
  Basis Set: AUG-CC-PVTZ
    Blend: AUG-CC-PVTZ
  Basis Set: (AUG-CC-PVTZ AUX)
    Blend: AUG-CC-PVTZ-JKFIT
  @DF-RHF Final Energy:  -455.82457324230569
    Total Energy =                       -455.8245732423056324
  //            Monomer A HF           //
    Molecular point group: c1
  Multiplicity = 1
  Basis Set: AUG-CC-PVTZ
    Blend: AUG-CC-PVTZ
  Basis Set: (AUG-CC-PVTZ AUX)
    Blend: AUG-CC-PVTZ-JKFIT
  @DF-RHF Final Energy:  -227.90275847079147
    Total Energy =                       -227.9027584707914684
  //            Monomer B HF           //
    Molecular point group: c1

    Geometry (in Angstrom), charge = 0, multiplicity = 1:

       Center              X                  Y                   Z               Mass
    ------------   -----------------  -----------------  -----------------  -----------------
      Gh(C)          -2.184399405758     0.093249493498     0.008219309402    12.000000000000
      Gh(O)          -1.480849405758     1.066569493498     0.247969309402    15.994914619570
      Gh(O)          -1.711989405758    -1.108970506502    -0.280050690598    15.994914619570
      Gh(H)          -0.718249405758    -1.076170506502    -0.265430690598     1.007825032230
      Gh(C)          -3.681119405758     0.138659493498     0.012419309402    12.000000000000
      Gh(H)          -4.018689405758     1.143569493498     0.234479309402     1.007825032230
      Gh(H)          -4.055579405758    -0.181500506502    -0.956840690598     1.007825032230
      Gh(H)          -4.059899405758    -0.558980506502     0.755719309402     1.007825032230
         C            2.184430594242    -0.093170506502    -0.008720690598    12.000000000000
         O            1.480810594242    -1.066480506502    -0.248510690598    15.994914619570
         O            1.712000594242     1.109269493498     0.279059309402    15.994914619570
         H            0.718210594242     1.076369493498     0.264659309402     1.007825032230
         C            3.681140594242    -0.139070506502    -0.010680690598    12.000000000000
         H            4.018720594242    -1.140390506502    -0.248210690598     1.007825032230
         H            4.062640594242     0.571279493498    -0.740150690598     1.007825032230
         H            4.052660594242     0.163619493498     0.965369309402     1.007825032230

  Charge       = 0
  Multiplicity = 1
  Basis Set: AUG-CC-PVTZ
    Blend: AUG-CC-PVTZ
  Basis Set: (AUG-CC-PVTZ AUX)
    Blend: AUG-CC-PVTZ-JKFIT

    Orbital Energies [Eh]
    ---------------------

    Doubly Occupied:

       1A    -20.625046     2A    -20.545271     3A    -11.389410
       4A    -11.243642     5A     -1.471729     6A     -1.354663
       7A     -1.028797     8A     -0.833685     9A     -0.705211
      10A     -0.682426    11A     -0.656287    12A     -0.580199
      13A     -0.572722    14A     -0.565083    15A     -0.477843
      16A     -0.452426

  @DF-RHF Final Energy:  -227.90275039246876

   => Energetics <=

    Nuclear Repulsion Energy =            121.3503348148357333
    One-Electron Energy =                -552.1372900775356811
    Two-Electron Energy =                 202.8842048702312013
    Total Energy =                       -227.9027503924687608

  Dipole Moment: [D]
     X:     1.1151      Y:     1.8780      Z:     0.4603     Total:     2.2320

    SAPT Results
  --------------------------------------------------------------------------------------------------------
    Electrostatics                -20.44481396 [mEh]     -12.82931445 [kcal/mol]     -53.67785166 [kJ/mol]
      Elst10,r                    -22.31550417 [mEh]     -14.00319028 [kcal/mol]     -58.58934812 [kJ/mol]
      Elst12,r                      1.87069021 [mEh]       1.17387583 [kcal/mol]       4.91149646 [kJ/mol]

    Exchange                       11.38487584 [mEh]       7.14411745 [kcal/mol]      29.89098740 [kJ/mol]
      Exch10                        9.05690978 [mEh]       5.68329669 [kcal/mol]      23.77891335 [kJ/mol]
      Exch10(S^2)                   9.01985792 [mEh]       5.66004630 [kcal/mol]      23.68163372 [kJ/mol]
      Exch11(S^2)                   0.01957543 [mEh]       0.01228377 [kcal/mol]       0.05139528 [kJ/mol]
      Exch12(S^2)                   2.30839063 [mEh]       1.44853699 [kcal/mol]       6.06067877 [kJ/mol]

    Induction                      -6.40948191 [mEh]      -4.02201062 [kcal/mol]     -16.82809245 [kJ/mol]
      Ind20,r                      -6.39159154 [mEh]      -4.01078425 [kcal/mol]     -16.78112129 [kJ/mol]
      Ind22                        -0.97466031 [mEh]      -0.61160858 [kcal/mol]      -2.55897028 [kJ/mol]
      Exch-Ind20,r                  2.43268786 [mEh]       1.52653468 [kcal/mol]       6.38702109 [kJ/mol]
      Exch-Ind22                    0.37096305 [mEh]       0.23278283 [kcal/mol]       0.97396335 [kJ/mol]
      delta HF,r (2)               -1.84688097 [mEh]      -1.15893531 [kcal/mol]      -4.84898532 [kJ/mol]

    Dispersion                     -6.30452674 [mEh]      -3.95615026 [kcal/mol]     -16.55253268 [kJ/mol]
      Disp20                       -5.85053567 [mEh]      -3.67126656 [kcal/mol]     -15.36057929 [kJ/mol]
      Disp21                        0.31788516 [mEh]       0.19947595 [kcal/mol]       0.83460737 [kJ/mol]
      Disp22 (SDQ)                 -0.24128119 [mEh]      -0.15140623 [kcal/mol]      -0.63348366 [kJ/mol]
      Disp22 (T)                   -1.12538733 [mEh]      -0.70619121 [kcal/mol]      -2.95470402 [kJ/mol]
      Est. Disp22 (T)              -1.27719086 [mEh]      -0.80144936 [kcal/mol]      -3.35326414 [kJ/mol]
      Exch-Disp20                   0.74659581 [mEh]       0.46849595 [kcal/mol]       1.96018704 [kJ/mol]

  Total HF                        -19.06437905 [mEh]     -11.96307846 [kcal/mol]     -50.05352029 [kJ/mol]
  Total SAPT0                     -24.16831890 [mEh]     -15.16584908 [kcal/mol]     -63.45391254 [kJ/mol]
  Total SAPT2                     -20.57335989 [mEh]     -12.90997824 [kcal/mol]     -54.01534896 [kJ/mol]
  Total SAPT2+                    -21.77394678 [mEh]     -13.66335788 [kcal/mol]     -57.16748939 [kJ/mol]

  Special recipe for scaled SAPT0 (see Manual):
    Electrostatics sSAPT0         -22.31550417 [mEh]     -14.00319028 [kcal/mol]     -58.58934812 [kJ/mol]
    Exchange sSAPT0                 9.05690978 [mEh]       5.68329669 [kcal/mol]      23.77891335 [kJ/mol]
    Induction sSAPT0               -5.77568229 [mEh]      -3.62429535 [kcal/mol]     -15.16405176 [kJ/mol]
    Dispersion sSAPT0              -5.09470139 [mEh]      -3.19697339 [kcal/mol]     -13.37613666 [kJ/mol]
  Total sSAPT0                    -24.12897807 [mEh]     -15.14116233 [kcal/mol]     -63.35062319 [kJ/mol]
  --------------------------------------------------------------------------------------------------------

*** Psi4 exiting successfully. Buy a developer a beer!
