                               Psi4 1.4a2.dev224

  ==> Input File <==

--------------------------------------------------------------------------
#Generated by lconvert.py for sapt job

memory 50 GB

molecule  {
0 1
  C      -1.061710    1.297140    0.292060
  O      -0.358160    2.270460    0.531810
  O      -0.589300    0.094920    0.003790
  H       0.404440    0.127720    0.018410
  C      -2.558430    1.342550    0.296260
  H      -2.896000    2.347460    0.518320
  H      -2.932890    1.022390   -0.673000
  H      -2.937210    0.644910    1.039560
--
0 1
  C       3.814570    1.112980    0.278970
  O       3.110950    0.139670    0.039180
  O       3.342140    2.315420    0.566750
  H       2.348360    2.282520    0.552340
  C       5.311280    1.067080    0.277000
  H       5.648860    0.065760    0.039480
  H       5.692780    1.777430   -0.452470
  H       5.682800    1.369770    1.253060
units angstrom
no_reorient
symmetry c1
}

set {
scf_type DF
basis aug-cc-pvtz
freeze_core True
guess SAD
}
energy('sapt2+')
--------------------------------------------------------------------------

  //              Dimer HF             //
    Molecular point group: c1
  Charge       = 0
  Multiplicity = 1
  Basis Set: AUG-CC-PVTZ
    Blend: AUG-CC-PVTZ
  Basis Set: (AUG-CC-PVTZ AUX)
    Blend: AUG-CC-PVTZ-JKFIT
  @DF-RHF Final Energy:  -455.81677401615218
    Total Energy =                       -455.8167740161521806
  //            Monomer A HF           //
    Molecular point group: c1
  Multiplicity = 1
  Basis Set: AUG-CC-PVTZ
    Blend: AUG-CC-PVTZ
  Basis Set: (AUG-CC-PVTZ AUX)
    Blend: AUG-CC-PVTZ-JKFIT
  @DF-RHF Final Energy:  -227.90270368139366
    Total Energy =                       -227.9027036813936604
  //            Monomer B HF           //
    Molecular point group: c1

    Geometry (in Angstrom), charge = 0, multiplicity = 1:

       Center              X                  Y                   Z               Mass
    ------------   -----------------  -----------------  -----------------  -----------------
      Gh(C)          -2.438124489713     0.092119493498     0.006295476962    12.000000000000
      Gh(O)          -1.734574489713     1.065439493498     0.246045476962    15.994914619570
      Gh(O)          -1.965714489713    -1.110100506502    -0.281974523038    15.994914619570
      Gh(H)          -0.971974489713    -1.077300506502    -0.267354523038     1.007825032230
      Gh(C)          -3.934844489713     0.137529493498     0.010495476962    12.000000000000
      Gh(H)          -4.272414489713     1.142439493498     0.232555476962     1.007825032230
      Gh(H)          -4.309304489713    -0.182630506502    -0.958764523038     1.007825032230
      Gh(H)          -4.313624489713    -0.560110506502     0.753795476962     1.007825032230
         C            2.438155510287    -0.092040506502    -0.006794523038    12.000000000000
         O            1.734535510287    -1.065350506502    -0.246584523038    15.994914619570
         O            1.965725510287     1.110399493498     0.280985476962    15.994914619570
         H            0.971945510287     1.077499493498     0.266575476962     1.007825032230
         C            3.934865510287    -0.137940506502    -0.008764523038    12.000000000000
         H            4.272445510287    -1.139260506502    -0.246284523038     1.007825032230
         H            4.316365510287     0.572409493498    -0.738234523038     1.007825032230
         H            4.306385510287     0.164749493498     0.967295476962     1.007825032230

  Charge       = 0
  Multiplicity = 1
  Basis Set: AUG-CC-PVTZ
    Blend: AUG-CC-PVTZ
  Basis Set: (AUG-CC-PVTZ AUX)
    Blend: AUG-CC-PVTZ-JKFIT

    Orbital Energies [Eh]
    ---------------------

    Doubly Occupied:

       1A    -20.625056     2A    -20.545285     3A    -11.389422
       4A    -11.243645     5A     -1.471743     6A     -1.354678
       7A     -1.028802     8A     -0.833697     9A     -0.705221
      10A     -0.682432    11A     -0.656293    12A     -0.580202
      13A     -0.572729    14A     -0.565086    15A     -0.477853
      16A     -0.452434

  @DF-RHF Final Energy:  -227.90269642770880

   => Energetics <=

    Nuclear Repulsion Energy =            121.3503659619536279
    One-Electron Energy =                -552.1369687873229850
    Two-Electron Energy =                 202.8839063976605530
    Total Energy =                       -227.9026964277088041

  Dipole Moment: [D]
     X:     1.1155      Y:     1.8780      Z:     0.4603     Total:     2.2322

    SAPT Results
  --------------------------------------------------------------------------------------------------------
    Electrostatics                 -9.96228955 [mEh]      -6.25143107 [kcal/mol]     -26.15598761 [kJ/mol]
      Elst10,r                    -11.33551546 [mEh]      -7.11314334 [kcal/mol]     -29.76139175 [kJ/mol]
      Elst12,r                      1.37322591 [mEh]       0.86171227 [kcal/mol]       3.60540414 [kJ/mol]

    Exchange                        2.09092253 [mEh]       1.31207369 [kcal/mol]       5.48971634 [kJ/mol]
      Exch10                        1.53130663 [mEh]       0.96090941 [kcal/mol]       4.02044499 [kJ/mol]
      Exch10(S^2)                   1.52979408 [mEh]       0.95996028 [kcal/mol]       4.01647379 [kJ/mol]
      Exch11(S^2)                  -0.00479050 [mEh]      -0.00300608 [kcal/mol]      -0.01257745 [kJ/mol]
      Exch12(S^2)                   0.56440640 [mEh]       0.35417036 [kcal/mol]       1.48184880 [kJ/mol]

    Induction                      -1.72742113 [mEh]      -1.08397312 [kcal/mol]      -4.53534354 [kJ/mol]
      Ind20,r                      -1.61787894 [mEh]      -1.01523436 [kcal/mol]      -4.24774057 [kJ/mol]
      Ind22                        -0.20358142 [mEh]      -0.12774927 [kcal/mol]      -0.53450294 [kJ/mol]
      Exch-Ind20,r                  0.36444143 [mEh]       0.22869045 [kcal/mol]       0.95684083 [kJ/mol]
      Exch-Ind22                    0.04585850 [mEh]       0.02877664 [kcal/mol]       0.12040148 [kJ/mol]
      delta HF,r (2)               -0.31626070 [mEh]      -0.19845658 [kcal/mol]      -0.83034234 [kJ/mol]

    Dispersion                     -2.60448549 [mEh]      -1.63433932 [kcal/mol]      -6.83807571 [kJ/mol]
      Disp20                       -2.25978841 [mEh]      -1.41803863 [kcal/mol]      -5.93307365 [kJ/mol]
      Disp21                        0.12869944 [mEh]       0.08076012 [kcal/mol]       0.33790034 [kJ/mol]
      Disp22 (SDQ)                 -0.10321845 [mEh]      -0.06477055 [kcal/mol]      -0.27100000 [kJ/mol]
      Disp22 (T)                   -0.47431240 [mEh]      -0.29763553 [kcal/mol]      -1.24530705 [kJ/mol]
      Est. Disp22 (T)              -0.52154773 [mEh]      -0.32727614 [kcal/mol]      -1.36932337 [kJ/mol]
      Exch-Disp20                   0.15136965 [mEh]       0.09498589 [kcal/mol]       0.39742097 [kJ/mol]

  Total HF                        -11.37390705 [mEh]      -7.13723443 [kcal/mol]     -29.86218884 [kJ/mol]
  Total SAPT0                     -13.48232580 [mEh]      -8.46028717 [kcal/mol]     -35.39784152 [kJ/mol]
  Total SAPT2                     -11.70720690 [mEh]      -7.34638324 [kcal/mol]     -30.73726749 [kJ/mol]
  Total SAPT2+                    -12.20327364 [mEh]      -7.65766982 [kcal/mol]     -32.03969053 [kJ/mol]

  Special recipe for scaled SAPT0 (see Manual):
    Electrostatics sSAPT0         -11.33551546 [mEh]      -7.11314334 [kcal/mol]     -29.76139175 [kJ/mol]
    Exchange sSAPT0                 1.53130663 [mEh]       0.96090941 [kcal/mol]       4.02044499 [kJ/mol]
    Induction sSAPT0               -1.56861614 [mEh]      -0.98432149 [kcal/mol]      -4.11840111 [kJ/mol]
    Dispersion sSAPT0              -2.10796932 [mEh]      -1.32277072 [kcal/mol]      -5.53447268 [kJ/mol]
  Total sSAPT0                    -13.48079430 [mEh]      -8.45932614 [kcal/mol]     -35.39382056 [kJ/mol]
  --------------------------------------------------------------------------------------------------------

*** Psi4 exiting successfully. Buy a developer a beer!
