                               Psi4 1.4a2.dev224

  ==> Input File <==

--------------------------------------------------------------------------
#Generated by lconvert.py for sapt job

memory 50 GB

molecule  {
0 1
  C      -1.309750    1.180180   -0.025170
  O      -0.725300    2.155150    0.452710
  N      -0.665620    0.095060   -0.491990
  H       0.354580    0.051450   -0.459310
  H      -1.183630   -0.673600   -0.870760
  C      -2.816720    1.156000   -0.110610
  H      -3.220630    1.262540    0.893080
  H      -3.209430    0.248630   -0.561900
  H      -3.143160    2.016600   -0.688890
--
0 1
  C       4.463380    1.099000    0.238650
  O       3.878950    0.124980   -0.241080
  N       3.819290    2.183740    0.706500
  H       2.799180    2.228180    0.672200
  H       4.337310    2.951700    1.086620
  C       5.970380    1.123280    0.323880
  H       6.362250    2.022930    0.791060
  H       6.373930    1.035740   -0.681900
  H       6.298160    0.252710    0.886060
units angstrom
no_reorient
symmetry c1
}

set {
scf_type DF
basis aug-cc-pvtz
freeze_core True
guess SAD
}
energy('sapt2+')
--------------------------------------------------------------------------

  //              Dimer HF             //
    Molecular point group: c1
  Charge       = 0
  Multiplicity = 1
  Basis Set: AUG-CC-PVTZ
    Blend: AUG-CC-PVTZ
  Basis Set: (AUG-CC-PVTZ AUX)
    Blend: AUG-CC-PVTZ-JKFIT
  @DF-RHF Final Energy:  -416.12900023064060
    Total Energy =                       -416.1290002306405995
  //            Monomer A HF           //
    Molecular point group: c1
  Multiplicity = 1
  Basis Set: AUG-CC-PVTZ
    Blend: AUG-CC-PVTZ
  Basis Set: (AUG-CC-PVTZ AUX)
    Blend: AUG-CC-PVTZ-JKFIT
  @DF-RHF Final Energy:  -208.06137993420870
    Total Energy =                       -208.0613799342087020
  //            Monomer B HF           //
    Molecular point group: c1

    Geometry (in Angstrom), charge = 0, multiplicity = 1:

       Center              X                  Y                   Z               Mass
    ------------   -----------------  -----------------  -----------------  -----------------
      Gh(C)          -2.886579001612     0.040487846723    -0.131750470298    12.000000000000
      Gh(O)          -2.302129001612     1.015457846723     0.346129529702    15.994914619570
      Gh(N)          -2.242449001612    -1.044632153277    -0.598570470298    14.003074004430
      Gh(H)          -1.222249001612    -1.088242153277    -0.565890470298     1.007825032230
      Gh(H)          -2.760459001612    -1.813292153277    -0.977340470298     1.007825032230
      Gh(C)          -4.393549001612     0.016307846723    -0.217190470298    12.000000000000
      Gh(H)          -4.797459001612     0.122847846723     0.786499529702     1.007825032230
      Gh(H)          -4.786259001612    -0.891062153277    -0.668480470298     1.007825032230
      Gh(H)          -4.719989001612     0.876907846723    -0.795470470298     1.007825032230
         C            2.886550998388    -0.040692153277     0.132069529702    12.000000000000
         O            2.302120998388    -1.014712153277    -0.347660470298    15.994914619570
         N            2.242460998388     1.044047846723     0.599919529702    14.003074004430
         H            1.222350998388     1.088487846723     0.565619529702     1.007825032230
         H            2.760480998388     1.812007846723     0.980039529702     1.007825032230
         C            4.393550998388    -0.016412153277     0.217299529702    12.000000000000
         H            4.785420998388     0.883237846723     0.684479529702     1.007825032230
         H            4.797100998388    -0.103952153277    -0.788480470298     1.007825032230
         H            4.721330998388    -0.886982153277     0.779479529702     1.007825032230

  Charge       = 0
  Multiplicity = 1
  Basis Set: AUG-CC-PVTZ
    Blend: AUG-CC-PVTZ
  Basis Set: (AUG-CC-PVTZ AUX)
    Blend: AUG-CC-PVTZ-JKFIT

    Orbital Energies [Eh]
    ---------------------

    Doubly Occupied:

       1A    -20.511377     2A    -15.593459     3A    -11.352785
       4A    -11.237601     5A     -1.369070     6A     -1.218845
       7A     -1.005882     8A     -0.804974     9A     -0.730875
      10A     -0.663358    11A     -0.615647    12A     -0.579287
      13A     -0.564527    14A     -0.524478    15A     -0.421406
      16A     -0.414142

  @DF-RHF Final Energy:  -208.06138523695577

   => Energetics <=

    Nuclear Repulsion Energy =            121.8555494175170111
    One-Electron Energy =                -524.6184405192022950
    Two-Electron Energy =                 194.7015058647295120
    Total Energy =                       -208.0613852369557719

  Dipole Moment: [D]
     X:     1.4796      Y:     3.7511      Z:     1.7973     Total:     4.4148

    SAPT Results
  --------------------------------------------------------------------------------------------------------
    Electrostatics                 -5.22826021 [mEh]      -3.28078281 [kcal/mol]     -13.72679530 [kJ/mol]
      Elst10,r                     -5.95701221 [mEh]      -3.73808160 [kcal/mol]     -15.64013339 [kJ/mol]
      Elst12,r                      0.72875199 [mEh]       0.45729878 [kcal/mol]       1.91333810 [kJ/mol]

    Exchange                        0.17564428 [mEh]       0.11021845 [kcal/mol]       0.46115399 [kJ/mol]
      Exch10                        0.11685101 [mEh]       0.07332512 [kcal/mol]       0.30679228 [kJ/mol]
      Exch10(S^2)                   0.11683916 [mEh]       0.07331768 [kcal/mol]       0.30676117 [kJ/mol]
      Exch11(S^2)                  -0.00269506 [mEh]      -0.00169118 [kcal/mol]      -0.00707588 [kJ/mol]
      Exch12(S^2)                   0.06148833 [mEh]       0.03858451 [kcal/mol]       0.16143758 [kJ/mol]

    Induction                      -0.40402097 [mEh]      -0.25352699 [kcal/mol]      -1.06075692 [kJ/mol]
      Ind20,r                      -0.38682360 [mEh]      -0.24273547 [kcal/mol]      -1.01560522 [kJ/mol]
      Ind22                        -0.00968999 [mEh]      -0.00608056 [kcal/mol]      -0.02544107 [kJ/mol]
      Exch-Ind20,r                  0.02264646 [mEh]       0.01421087 [kcal/mol]       0.05945827 [kJ/mol]
      Exch-Ind22                    0.00056730 [mEh]       0.00035598 [kcal/mol]       0.00148944 [kJ/mol]
      delta HF,r (2)               -0.03072114 [mEh]      -0.01927781 [kcal/mol]      -0.08065834 [kJ/mol]

    Dispersion                     -0.85938617 [mEh]      -0.53927297 [kcal/mol]      -2.25631809 [kJ/mol]
      Disp20                       -0.74791479 [mEh]      -0.46932361 [kcal/mol]      -1.96365000 [kJ/mol]
      Disp21                        0.05373314 [mEh]       0.03371805 [kcal/mol]       0.14107634 [kJ/mol]
      Disp22 (SDQ)                 -0.01134960 [mEh]      -0.00712198 [kcal/mol]      -0.02979837 [kJ/mol]
      Disp22 (T)                   -0.15921210 [mEh]      -0.09990710 [kcal/mol]      -0.41801130 [kJ/mol]
      Est. Disp22 (T)              -0.16883993 [mEh]      -0.10594866 [kcal/mol]      -0.44328918 [kJ/mol]
      Exch-Disp20                   0.01498500 [mEh]       0.00940323 [kcal/mol]       0.03934312 [kJ/mol]

  Total HF                         -6.23505948 [mEh]      -3.91255889 [kcal/mol]     -16.37014640 [kJ/mol]
  Total SAPT0                      -6.96798926 [mEh]      -4.37247927 [kcal/mol]     -18.29445328 [kJ/mol]
  Total SAPT2                      -6.18956669 [mEh]      -3.88401174 [kcal/mol]     -16.25070511 [kJ/mol]
  Total SAPT2+                     -6.31602308 [mEh]      -3.96336432 [kcal/mol]     -16.58271631 [kJ/mol]

  Special recipe for scaled SAPT0 (see Manual):
    Electrostatics sSAPT0          -5.95701221 [mEh]      -3.73808160 [kcal/mol]     -15.64013339 [kJ/mol]
    Exchange sSAPT0                 0.11685101 [mEh]       0.07332512 [kcal/mol]       0.30679228 [kJ/mol]
    Induction sSAPT0               -0.39489139 [mEh]      -0.24779809 [kcal/mol]      -1.03678720 [kJ/mol]
    Dispersion sSAPT0              -0.73292522 [mEh]      -0.45991752 [kcal/mol]      -1.92429491 [kJ/mol]
  Total sSAPT0                     -6.96797781 [mEh]      -4.37247209 [kcal/mol]     -18.29442322 [kJ/mol]
  --------------------------------------------------------------------------------------------------------

*** Psi4 exiting successfully. Buy a developer a beer!
