                               Psi4 1.4a2.dev224

  ==> Input File <==

--------------------------------------------------------------------------
#Generated by lconvert.py for sapt job

memory 50 GB

molecule  {
0 1
  C      -1.309750    1.180180   -0.025170
  O      -0.725300    2.155150    0.452710
  N      -0.665620    0.095060   -0.491990
  H       0.354580    0.051450   -0.459310
  H      -1.183630   -0.673600   -0.870760
  C      -2.816720    1.156000   -0.110610
  H      -3.220630    1.262540    0.893080
  H      -3.209430    0.248630   -0.561900
  H      -3.143160    2.016600   -0.688890
--
0 1
  C       3.350450    1.075770    0.169760
  O       2.766030    0.101750   -0.309970
  N       2.706360    2.160520    0.637610
  H       1.686260    2.204950    0.603310
  H       3.224390    2.928480    1.017730
  C       4.857450    1.100060    0.254990
  H       5.249320    1.999710    0.722170
  H       5.261000    1.012510   -0.750790
  H       5.185230    0.229480    0.817170
units angstrom
no_reorient
symmetry c1
}

set {
scf_type DF
basis aug-cc-pvtz
freeze_core True
guess SAD
}
energy('sapt2+')
--------------------------------------------------------------------------

  //              Dimer HF             //
    Molecular point group: c1
  Charge       = 0
  Multiplicity = 1
  Basis Set: AUG-CC-PVTZ
    Blend: AUG-CC-PVTZ
  Basis Set: (AUG-CC-PVTZ AUX)
    Blend: AUG-CC-PVTZ-JKFIT
  @DF-RHF Final Energy:  -416.13893067439335
    Total Energy =                       -416.1389306743933503
  //            Monomer A HF           //
    Molecular point group: c1
  Multiplicity = 1
  Basis Set: AUG-CC-PVTZ
    Blend: AUG-CC-PVTZ
  Basis Set: (AUG-CC-PVTZ AUX)
    Blend: AUG-CC-PVTZ-JKFIT
  @DF-RHF Final Energy:  -208.06145856171764
    Total Energy =                       -208.0614585617176431
  //            Monomer B HF           //
    Molecular point group: c1

    Geometry (in Angstrom), charge = 0, multiplicity = 1:

       Center              X                  Y                   Z               Mass
    ------------   -----------------  -----------------  -----------------  -----------------
      Gh(C)          -2.330115526971     0.052100473747    -0.097305470298    12.000000000000
      Gh(O)          -1.745665526971     1.027070473747     0.380574529702    15.994914619570
      Gh(N)          -1.685985526971    -1.033019526253    -0.564125470298    14.003074004430
      Gh(H)          -0.665785526971    -1.076629526253    -0.531445470298     1.007825032230
      Gh(H)          -2.203995526971    -1.801679526253    -0.942895470298     1.007825032230
      Gh(C)          -3.837085526971     0.027920473747    -0.182745470298    12.000000000000
      Gh(H)          -4.240995526971     0.134460473747     0.820944529702     1.007825032230
      Gh(H)          -4.229795526971    -0.879449526253    -0.634035470298     1.007825032230
      Gh(H)          -4.163525526971     0.888520473747    -0.761025470298     1.007825032230
         C            2.330084473029    -0.052309526253     0.097624529702    12.000000000000
         O            1.745664473029    -1.026329526253    -0.382105470298    15.994914619570
         N            1.685994473029     1.032440473747     0.565474529702    14.003074004430
         H            0.665894473029     1.076870473747     0.531174529702     1.007825032230
         H            2.204024473029     1.800400473747     0.945594529702     1.007825032230
         C            3.837084473029    -0.028019526253     0.182854529702    12.000000000000
         H            4.228954473029     0.871630473747     0.650034529702     1.007825032230
         H            4.240634473029    -0.115569526253    -0.822925470298     1.007825032230
         H            4.164864473029    -0.898599526253     0.745034529702     1.007825032230

  Charge       = 0
  Multiplicity = 1
  Basis Set: AUG-CC-PVTZ
    Blend: AUG-CC-PVTZ
  Basis Set: (AUG-CC-PVTZ AUX)
    Blend: AUG-CC-PVTZ-JKFIT

    Orbital Energies [Eh]
    ---------------------

    Doubly Occupied:

       1A    -20.511358     2A    -15.593468     3A    -11.352779
       4A    -11.237602     5A     -1.369062     6A     -1.218837
       7A     -1.005879     8A     -0.804967     9A     -0.730871
      10A     -0.663359    11A     -0.615642    12A     -0.579280
      13A     -0.564529    14A     -0.524471    15A     -0.421414
      16A     -0.414133

  @DF-RHF Final Energy:  -208.06146461669405

   => Energetics <=

    Nuclear Repulsion Energy =            121.8554949684611870
    One-Electron Energy =                -524.6186187680596049
    Two-Electron Energy =                 194.7016591829043648
    Total Energy =                       -208.0614646166940531

  Dipole Moment: [D]
     X:     1.4791      Y:     3.7506      Z:     1.7971     Total:     4.4141

    SAPT Results
  --------------------------------------------------------------------------------------------------------
    Electrostatics                -16.46980498 [mEh]     -10.33495866 [kcal/mol]     -43.24146701 [kJ/mol]
      Elst10,r                    -17.77920018 [mEh]     -11.15661655 [kcal/mol]     -46.67928365 [kJ/mol]
      Elst12,r                      1.30939520 [mEh]       0.82165789 [kcal/mol]       3.43781663 [kJ/mol]

    Exchange                        6.76113083 [mEh]       4.24267365 [kcal/mol]      17.75134655 [kJ/mol]
      Exch10                        5.37125924 [mEh]       3.37051606 [kcal/mol]      14.10223918 [kJ/mol]
      Exch10(S^2)                   5.35824837 [mEh]       3.36235162 [kcal/mol]      14.06807916 [kJ/mol]
      Exch11(S^2)                  -0.02642797 [mEh]      -0.01658380 [kcal/mol]      -0.06938662 [kJ/mol]
      Exch12(S^2)                   1.41629956 [mEh]       0.88874139 [kcal/mol]       3.71849399 [kJ/mol]

    Induction                      -3.92955824 [mEh]      -2.46583502 [kcal/mol]     -10.31705373 [kJ/mol]
      Ind20,r                      -3.85002925 [mEh]      -2.41592983 [kcal/mol]     -10.10825041 [kJ/mol]
      Ind22                        -0.48535305 [mEh]      -0.30456364 [kcal/mol]      -1.27429425 [kJ/mol]
      Exch-Ind20,r                  1.23230184 [mEh]       0.77328108 [kcal/mol]       3.23540804 [kJ/mol]
      Exch-Ind22                    0.15534985 [mEh]       0.09748350 [kcal/mol]       0.40787097 [kJ/mol]
      delta HF,r (2)               -0.98182763 [mEh]      -0.61610614 [kcal/mol]      -2.57778808 [kJ/mol]

    Dispersion                     -4.87418710 [mEh]      -3.05859858 [kcal/mol]     -12.79717647 [kJ/mol]
      Disp20                       -4.54101663 [mEh]      -2.84953096 [kcal/mol]     -11.92243753 [kJ/mol]
      Disp21                        0.20164342 [mEh]       0.12653316 [kcal/mol]       0.52941474 [kJ/mol]
      Disp22 (SDQ)                 -0.07577402 [mEh]      -0.04754892 [kcal/mol]      -0.19894468 [kJ/mol]
      Disp22 (T)                   -0.84843218 [mEh]      -0.53239923 [kcal/mol]      -2.22755839 [kJ/mol]
      Est. Disp22 (T)              -0.95369118 [mEh]      -0.59845025 [kcal/mol]      -2.50391585 [kJ/mol]
      Exch-Disp20                   0.49465132 [mEh]       0.31039839 [kcal/mol]       1.29870685 [kJ/mol]

  Total HF                        -16.00749598 [mEh]     -10.04485538 [kcal/mol]     -42.02767491 [kJ/mol]
  Total SAPT0                     -20.05386130 [mEh]     -12.58398795 [kcal/mol]     -52.65140559 [kJ/mol]
  Total SAPT2                     -17.68459770 [mEh]     -11.09725260 [kcal/mol]     -46.43090487 [kJ/mol]
  Total SAPT2+                    -18.51241949 [mEh]     -11.61671861 [kcal/mol]     -48.60435067 [kJ/mol]

  Special recipe for scaled SAPT0 (see Manual):
    Electrostatics sSAPT0         -17.77920018 [mEh]     -11.15661655 [kcal/mol]     -46.67928365 [kJ/mol]
    Exchange sSAPT0                 5.37125924 [mEh]       3.37051606 [kcal/mol]      14.10223918 [kJ/mol]
    Induction sSAPT0               -3.59055642 [mEh]      -2.25310817 [kcal/mol]      -9.42700458 [kJ/mol]
    Dispersion sSAPT0              -4.04275324 [mEh]      -2.53686596 [kcal/mol]     -10.61424716 [kJ/mol]
  Total sSAPT0                    -20.04125060 [mEh]     -12.57607462 [kcal/mol]     -52.61829621 [kJ/mol]
  --------------------------------------------------------------------------------------------------------

*** Psi4 exiting successfully. Buy a developer a beer!
