                               Psi4 1.4a2.dev224

  ==> Input File <==

--------------------------------------------------------------------------
#Generated by lconvert.py for sapt job

memory 50 GB

molecule  {
0 1
  C      -1.309750    1.180180   -0.025170
  O      -0.725300    2.155150    0.452710
  N      -0.665620    0.095060   -0.491990
  H       0.354580    0.051450   -0.459310
  H      -1.183630   -0.673600   -0.870760
  C      -2.816720    1.156000   -0.110610
  H      -3.220630    1.262540    0.893080
  H      -3.209430    0.248630   -0.561900
  H      -3.143160    2.016600   -0.688890
--
0 1
  C       3.906910    1.087390    0.204210
  O       3.322490    0.113360   -0.275520
  N       3.262830    2.172130    0.672050
  H       2.242720    2.216570    0.637750
  H       3.780850    2.940090    1.052170
  C       5.413910    1.111670    0.289430
  H       5.805780    2.011320    0.756620
  H       5.817470    1.024120   -0.716350
  H       5.741690    0.241100    0.851610
units angstrom
no_reorient
symmetry c1
}

set {
scf_type DF
basis aug-cc-pvtz
freeze_core True
guess SAD
}
energy('sapt2+')
--------------------------------------------------------------------------

  //              Dimer HF             //
    Molecular point group: c1
  Charge       = 0
  Multiplicity = 1
  Basis Set: AUG-CC-PVTZ
    Blend: AUG-CC-PVTZ
  Basis Set: (AUG-CC-PVTZ AUX)
    Blend: AUG-CC-PVTZ-JKFIT
  @DF-RHF Final Energy:  -416.13278711097092
    Total Energy =                       -416.1327871109709235
  //            Monomer A HF           //
    Molecular point group: c1
  Multiplicity = 1
  Basis Set: AUG-CC-PVTZ
    Blend: AUG-CC-PVTZ
  Basis Set: (AUG-CC-PVTZ AUX)
    Blend: AUG-CC-PVTZ-JKFIT
  @DF-RHF Final Energy:  -208.06140463145525
    Total Energy =                       -208.0614046314552468
  //            Monomer B HF           //
    Molecular point group: c1

    Geometry (in Angstrom), charge = 0, multiplicity = 1:

       Center              X                  Y                   Z               Mass
    ------------   -----------------  -----------------  -----------------  -----------------
      Gh(C)          -2.608346798282     0.046294286727    -0.114527926612    12.000000000000
      Gh(O)          -2.023896798282     1.021264286727     0.363352073388    15.994914619570
      Gh(N)          -1.964216798282    -1.038825713273    -0.581347926612    14.003074004430
      Gh(H)          -0.944016798282    -1.082435713273    -0.548667926612     1.007825032230
      Gh(H)          -2.482226798282    -1.807485713273    -0.960117926612     1.007825032230
      Gh(C)          -4.115316798282     0.022114286727    -0.199967926612    12.000000000000
      Gh(H)          -4.519226798282     0.128654286727     0.803722073388     1.007825032230
      Gh(H)          -4.508026798282    -0.885255713273    -0.651257926612     1.007825032230
      Gh(H)          -4.441756798282     0.882714286727    -0.778247926612     1.007825032230
         C            2.608313201718    -0.046495713273     0.114852073388    12.000000000000
         O            2.023893201718    -1.020525713273    -0.364877926612    15.994914619570
         N            1.964233201718     1.038244286727     0.582692073388    14.003074004430
         H            0.944123201718     1.082684286727     0.548392073388     1.007825032230
         H            2.482253201718     1.806204286727     0.962812073388     1.007825032230
         C            4.115313201718    -0.022215713273     0.200072073388    12.000000000000
         H            4.507183201718     0.877434286727     0.667262073388     1.007825032230
         H            4.518873201718    -0.109765713273    -0.805707926612     1.007825032230
         H            4.443093201718    -0.892785713273     0.762252073388     1.007825032230

  Charge       = 0
  Multiplicity = 1
  Basis Set: AUG-CC-PVTZ
    Blend: AUG-CC-PVTZ
  Basis Set: (AUG-CC-PVTZ AUX)
    Blend: AUG-CC-PVTZ-JKFIT

    Orbital Energies [Eh]
    ---------------------

    Doubly Occupied:

       1A    -20.511371     2A    -15.593463     3A    -11.352781
       4A    -11.237601     5A     -1.369064     6A     -1.218845
       7A     -1.005879     8A     -0.804974     9A     -0.730875
      10A     -0.663357    11A     -0.615644    12A     -0.579281
      13A     -0.564527    14A     -0.524475    15A     -0.421409
      16A     -0.414137

  @DF-RHF Final Energy:  -208.06140945516256

   => Energetics <=

    Nuclear Repulsion Energy =            121.8556341281213804
    One-Electron Energy =                -524.6187209410785499
    Two-Electron Energy =                 194.7016773577946083
    Total Energy =                       -208.0614094551625612

  Dipole Moment: [D]
     X:     1.4794      Y:     3.7509      Z:     1.7972     Total:     4.4145

    SAPT Results
  --------------------------------------------------------------------------------------------------------
    Electrostatics                 -8.66816874 [mEh]      -5.43935800 [kcal/mol]     -22.75827388 [kJ/mol]
      Elst10,r                     -9.69194899 [mEh]      -6.08178981 [kcal/mol]     -25.44620856 [kJ/mol]
      Elst12,r                      1.02378025 [mEh]       0.64243181 [kcal/mol]       2.68793467 [kJ/mol]

    Exchange                        1.08412618 [mEh]       0.68029945 [kcal/mol]       2.84637290 [kJ/mol]
      Exch10                        0.78768716 [mEh]       0.49428116 [kcal/mol]       2.06807236 [kJ/mol]
      Exch10(S^2)                   0.78729620 [mEh]       0.49403582 [kcal/mol]       2.06704588 [kJ/mol]
      Exch11(S^2)                  -0.01148180 [mEh]      -0.00720494 [kcal/mol]      -0.03014546 [kJ/mol]
      Exch12(S^2)                   0.30792082 [mEh]       0.19322323 [kcal/mol]       0.80844601 [kJ/mol]

    Induction                      -1.13804386 [mEh]      -0.71413331 [kcal/mol]      -2.98793376 [kJ/mol]
      Ind20,r                      -1.07307066 [mEh]      -0.67336200 [kcal/mol]      -2.81734662 [kJ/mol]
      Ind22                        -0.08169331 [mEh]      -0.05126333 [kcal/mol]      -0.21448576 [kJ/mol]
      Exch-Ind20,r                  0.16303570 [mEh]       0.10230645 [kcal/mol]       0.42805017 [kJ/mol]
      Exch-Ind22                    0.01241198 [mEh]       0.00778863 [kcal/mol]       0.03258764 [kJ/mol]
      delta HF,r (2)               -0.15872757 [mEh]      -0.09960306 [kcal/mol]      -0.41673918 [kJ/mol]

    Dispersion                     -1.94937218 [mEh]      -1.22324951 [kcal/mol]      -5.11807596 [kJ/mol]
      Disp20                       -1.71685832 [mEh]      -1.07734486 [kcal/mol]      -4.50761091 [kJ/mol]
      Disp21                        0.09146346 [mEh]       0.05739419 [kcal/mol]       0.24013727 [kJ/mol]
      Disp22 (SDQ)                 -0.03183786 [mEh]      -0.01997856 [kcal/mol]      -0.08359028 [kJ/mol]
      Disp22 (T)                   -0.34827163 [mEh]      -0.21854374 [kcal/mol]      -0.91438703 [kJ/mol]
      Est. Disp22 (T)              -0.37943830 [mEh]      -0.23810113 [kcal/mol]      -0.99621512 [kJ/mol]
      Exch-Disp20                   0.08729884 [mEh]       0.05478085 [kcal/mol]       0.22920308 [kJ/mol]

  Total HF                         -9.97302435 [mEh]      -6.25816726 [kcal/mol]     -26.18417183 [kJ/mol]
  Total SAPT0                     -11.60258383 [mEh]      -7.28073128 [kcal/mol]     -30.46257966 [kJ/mol]
  Total SAPT2                     -10.35164590 [mEh]      -6.49575587 [kcal/mol]     -27.17824256 [kJ/mol]
  Total SAPT2+                    -10.67145860 [mEh]      -6.69644137 [kcal/mol]     -28.01791069 [kJ/mol]

  Special recipe for scaled SAPT0 (see Manual):
    Electrostatics sSAPT0          -9.69194899 [mEh]      -6.08178981 [kcal/mol]     -25.44620856 [kJ/mol]
    Exchange sSAPT0                 0.78768716 [mEh]       0.49428116 [kcal/mol]       2.06807236 [kJ/mol]
    Induction sSAPT0               -1.06851952 [mEh]      -0.67050612 [kcal/mol]      -2.80539762 [kJ/mol]
    Dispersion sSAPT0              -1.62942936 [mEh]      -1.02248236 [kcal/mol]      -4.27806620 [kJ/mol]
  Total sSAPT0                    -11.60221071 [mEh]      -7.28049714 [kcal/mol]     -30.46160002 [kJ/mol]
  --------------------------------------------------------------------------------------------------------

*** Psi4 exiting successfully. Buy a developer a beer!
