                               Psi4 1.4a2.dev224

  ==> Input File <==

--------------------------------------------------------------------------
#Generated by lconvert.py for sapt job

memory 50 GB

molecule  {
0 1
  C      -1.113630    1.327020    0.275170
  O      -0.467080    2.349390    0.461540
  O      -0.578090    0.136920    0.049620
  H       0.413320    0.203260    0.055490
  C      -2.611430    1.286190    0.277360
  H      -3.006650    2.276890    0.465790
  H      -2.964260    0.915260   -0.682000
  H      -2.953110    0.591800    1.041240
--
0 1
  N       4.708210    1.084880    0.178360
  H       5.101420    0.169490    0.006640
  C       5.629740    2.132990    0.359810
  O       6.826880    1.914700    0.306930
  C       4.990670    3.412460    0.600420
  H       5.610210    4.279380    0.751900
  C       3.643590    3.492450    0.629800
  H       3.120750    4.420890    0.805100
  N       2.839860    2.401770    0.439390
  H       1.815800    2.471710    0.463190
  C       3.339790    1.151540    0.205220
  O       2.627760    0.162040    0.031750
units angstrom
no_reorient
symmetry c1
}

set {
scf_type DF
basis aug-cc-pvtz
freeze_core True
guess SAD
}
energy('sapt2+')
--------------------------------------------------------------------------

  //              Dimer HF             //
    Molecular point group: c1
  Charge       = 0
  Multiplicity = 1
  Basis Set: AUG-CC-PVTZ
    Blend: AUG-CC-PVTZ
  Basis Set: (AUG-CC-PVTZ AUX)
    Blend: AUG-CC-PVTZ-JKFIT
  @DF-RHF Final Energy:  -640.54558090366504
    Total Energy =                       -640.5455809036650408
  //            Monomer A HF           //
    Molecular point group: c1
  Multiplicity = 1
  Basis Set: AUG-CC-PVTZ
    Blend: AUG-CC-PVTZ
  Basis Set: (AUG-CC-PVTZ AUX)
    Blend: AUG-CC-PVTZ-JKFIT
  @DF-RHF Final Energy:  -227.90279012185786
    Total Energy =                       -227.9027901218578620
  //            Monomer B HF           //
    Molecular point group: c1

    Geometry (in Angstrom), charge = 0, multiplicity = 1:

       Center              X                  Y                   Z               Mass
    ------------   -----------------  -----------------  -----------------  -----------------
      Gh(C)          -3.519598391623    -0.363724169335    -0.034899580552    12.000000000000
      Gh(O)          -2.873048391623     0.658645830665     0.151470419448    15.994914619570
      Gh(O)          -2.984058391623    -1.553824169335    -0.260449580552    15.994914619570
      Gh(H)          -1.992648391623    -1.487484169335    -0.254579580552     1.007825032230
      Gh(C)          -5.017398391623    -0.404554169335    -0.032709580552    12.000000000000
      Gh(H)          -5.412618391623     0.586145830665     0.155720419448     1.007825032230
      Gh(H)          -5.370228391623    -0.775484169335    -0.992069580552     1.007825032230
      Gh(H)          -5.359078391623    -1.098944169335     0.731170419448     1.007825032230
         N            2.302241608377    -0.605864169335    -0.131709580552    14.003074004430
         H            2.695451608377    -1.521254169335    -0.303429580552     1.007825032230
         C            3.223771608377     0.442245830665     0.049740419448    12.000000000000
         O            4.420911608377     0.223955830665    -0.003139580552    15.994914619570
         C            2.584701608377     1.721715830665     0.290350419448    12.000000000000
         H            3.204241608377     2.588635830665     0.441830419448     1.007825032230
         C            1.237621608377     1.801705830665     0.319730419448    12.000000000000
         H            0.714781608377     2.730145830665     0.495030419448     1.007825032230
         N            0.433891608377     0.711025830665     0.129320419448    14.003074004430
         H           -0.590168391623     0.780965830665     0.153120419448     1.007825032230
         C            0.933821608377    -0.539204169335    -0.104849580552    12.000000000000
         O            0.221791608377    -1.528704169335    -0.278319580552    15.994914619570

  Charge       = 0
  Multiplicity = 1
  Basis Set: AUG-CC-PVTZ
    Blend: AUG-CC-PVTZ
  Basis Set: (AUG-CC-PVTZ AUX)
    Blend: AUG-CC-PVTZ-JKFIT

    Orbital Energies [Eh]
    ---------------------

    Doubly Occupied:

       1A    -20.543934     2A    -20.541174     3A    -15.650165
       4A    -15.628079     5A    -11.416740     6A    -11.382416
       7A    -11.343642     8A    -11.258697     9A     -1.431920
      10A     -1.397775    11A     -1.313235    12A     -1.247460
      13A     -1.091209    14A     -0.938286    15A     -0.901590
      16A     -0.808282    17A     -0.768256    18A     -0.716108
      19A     -0.677708    20A     -0.670926    21A     -0.648607
      22A     -0.616194    23A     -0.602661    24A     -0.571883
      25A     -0.524074    26A     -0.480775    27A     -0.449431
      28A     -0.435588    29A     -0.371571

  @DF-RHF Final Energy:  -412.62274671181939

   => Energetics <=

    Nuclear Repulsion Energy =            357.3026617034680044
    One-Electron Energy =               -1270.9940399157098909
    Two-Electron Energy =                 501.0686315004225548
    Total Energy =                       -412.6227467118193886

  Dipole Moment: [D]
     X:    -3.0687      Y:     4.1132      Z:     0.7853     Total:     5.1916

    SAPT Results
  --------------------------------------------------------------------------------------------------------
    Electrostatics                -20.23422186 [mEh]     -12.69716591 [kcal/mol]     -53.12494217 [kJ/mol]
      Elst10,r                    -22.54804370 [mEh]     -14.14911104 [kcal/mol]     -59.19988058 [kJ/mol]
      Elst12,r                      2.31382184 [mEh]       1.45194513 [kcal/mol]       6.07493841 [kJ/mol]

    Exchange                        9.79497800 [mEh]       6.14644149 [kcal/mol]      25.71671120 [kJ/mol]
      Exch10                        7.89711625 [mEh]       4.95551527 [kcal/mol]      20.73387587 [kJ/mol]
      Exch10(S^2)                   7.87053805 [mEh]       4.93883719 [kcal/mol]      20.66409479 [kJ/mol]
      Exch11(S^2)                  -0.02041291 [mEh]      -0.01280929 [kcal/mol]      -0.05359409 [kJ/mol]
      Exch12(S^2)                   1.91827466 [mEh]       1.20373552 [kcal/mol]       5.03642942 [kJ/mol]

    Induction                      -5.87533016 [mEh]      -3.68682534 [kcal/mol]     -15.42567721 [kJ/mol]
      Ind20,r                      -5.76163426 [mEh]      -3.61548008 [kcal/mol]     -15.12716867 [kJ/mol]
      Ind22                        -0.73418578 [mEh]      -0.46070853 [kcal/mol]      -1.92760451 [kJ/mol]
      Exch-Ind20,r                  1.97759380 [mEh]       1.24095885 [kcal/mol]       5.19217181 [kJ/mol]
      Exch-Ind22                    0.25199816 [mEh]       0.15813123 [kcal/mol]       0.66162109 [kJ/mol]
      delta HF,r (2)               -1.60910208 [mEh]      -1.00972680 [kcal/mol]      -4.22469694 [kJ/mol]

    Dispersion                     -6.21448122 [mEh]      -3.89964584 [kcal/mol]     -16.31611820 [kJ/mol]
      Disp20                       -5.80360637 [mEh]      -3.64181798 [kcal/mol]     -15.23736643 [kJ/mol]
      Disp21                        0.38148566 [mEh]       0.23938587 [kcal/mol]       1.00159046 [kJ/mol]
      Disp22 (SDQ)                 -0.16167034 [mEh]      -0.10144967 [kcal/mol]      -0.42446543 [kJ/mol]
      Disp22 (T)                   -1.15243520 [mEh]      -0.72316400 [kcal/mol]      -3.02571819 [kJ/mol]
      Est. Disp22 (T)              -1.29107732 [mEh]      -0.81016325 [kcal/mol]      -3.38972304 [kJ/mol]
      Exch-Disp20                   0.66038716 [mEh]       0.41439920 [kcal/mol]       1.73384624 [kJ/mol]

  Total HF                        -20.04406999 [mEh]     -12.57784381 [kcal/mol]     -52.62569850 [kJ/mol]
  Total SAPT0                     -25.18728920 [mEh]     -15.80526259 [kcal/mol]     -66.12921869 [kJ/mol]
  Total SAPT2                     -21.45779323 [mEh]     -13.46496854 [kcal/mol]     -56.33742837 [kJ/mol]
  Total SAPT2+                    -22.52905524 [mEh]     -14.13719560 [kcal/mol]     -59.15002638 [kJ/mol]

  Special recipe for scaled SAPT0 (see Manual):
    Electrostatics sSAPT0         -22.54804370 [mEh]     -14.14911104 [kcal/mol]     -59.19988058 [kJ/mol]
    Exchange sSAPT0                 7.89711625 [mEh]       4.95551527 [kcal/mol]      20.73387587 [kJ/mol]
    Induction sSAPT0               -5.37304026 [mEh]      -3.37163367 [kcal/mol]     -14.10691526 [kJ/mol]
    Dispersion sSAPT0              -5.13650636 [mEh]      -3.22320641 [kcal/mol]     -13.48589560 [kJ/mol]
  Total sSAPT0                    -25.16047407 [mEh]     -15.78843584 [kcal/mol]     -66.05881557 [kJ/mol]
  --------------------------------------------------------------------------------------------------------

*** Psi4 exiting successfully. Buy a developer a beer!
