                               Psi4 1.4a2.dev224

  ==> Input File <==

--------------------------------------------------------------------------
#Generated by lconvert.py for sapt job

memory 50 GB

molecule  {
0 1
  C      -1.113630    1.327020    0.275170
  O      -0.467080    2.349390    0.461540
  O      -0.578090    0.136920    0.049620
  H       0.413320    0.203260    0.055490
  C      -2.611430    1.286190    0.277360
  H      -3.006650    2.276890    0.465790
  H      -2.964260    0.915260   -0.682000
  H      -2.953110    0.591800    1.041240
--
0 1
  N       5.219170    1.073500    0.172590
  H       5.612380    0.158110    0.000870
  C       6.140700    2.121610    0.354040
  O       7.337840    1.903320    0.301160
  C       5.501630    3.401070    0.594650
  H       6.121170    4.268000    0.746130
  C       4.154550    3.481070    0.624030
  H       3.631710    4.409510    0.799330
  N       3.350820    2.390380    0.433620
  H       2.326760    2.460330    0.457410
  C       3.850750    1.140160    0.199450
  O       3.138720    0.150660    0.025980
units angstrom
no_reorient
symmetry c1
}

set {
scf_type DF
basis aug-cc-pvtz
freeze_core True
guess SAD
}
energy('sapt2+')
--------------------------------------------------------------------------

  //              Dimer HF             //
    Molecular point group: c1
  Charge       = 0
  Multiplicity = 1
  Basis Set: AUG-CC-PVTZ
    Blend: AUG-CC-PVTZ
  Basis Set: (AUG-CC-PVTZ AUX)
    Blend: AUG-CC-PVTZ-JKFIT
  @DF-RHF Final Energy:  -640.53790596505701
    Total Energy =                       -640.5379059650570071
  //            Monomer A HF           //
    Molecular point group: c1
  Multiplicity = 1
  Basis Set: AUG-CC-PVTZ
    Blend: AUG-CC-PVTZ
  Basis Set: (AUG-CC-PVTZ AUX)
    Blend: AUG-CC-PVTZ-JKFIT
  @DF-RHF Final Energy:  -227.90272494953570
    Total Energy =                       -227.9027249495356955
  //            Monomer B HF           //
    Molecular point group: c1

    Geometry (in Angstrom), charge = 0, multiplicity = 1:

       Center              X                  Y                   Z               Mass
    ------------   -----------------  -----------------  -----------------  -----------------
      Gh(C)          -3.852303929160    -0.356312706065    -0.031142454979    12.000000000000
      Gh(O)          -3.205753929160     0.666057293935     0.155227545021    15.994914619570
      Gh(O)          -3.316763929160    -1.546412706065    -0.256692454979    15.994914619570
      Gh(H)          -2.325353929160    -1.480072706065    -0.250822454979     1.007825032230
      Gh(C)          -5.350103929160    -0.397142706065    -0.028952454979    12.000000000000
      Gh(H)          -5.745323929160     0.593557293935     0.159477545021     1.007825032230
      Gh(H)          -5.702933929160    -0.768072706065    -0.988312454979     1.007825032230
      Gh(H)          -5.691783929160    -1.091532706065     0.734927545021     1.007825032230
         N            2.480496070840    -0.609832706065    -0.133722454979    14.003074004430
         H            2.873706070840    -1.525222706065    -0.305442454979     1.007825032230
         C            3.402026070840     0.438277293935     0.047727545021    12.000000000000
         O            4.599166070840     0.219987293935    -0.005152454979    15.994914619570
         C            2.762956070840     1.717737293935     0.288337545021    12.000000000000
         H            3.382496070840     2.584667293935     0.439817545021     1.007825032230
         C            1.415876070840     1.797737293935     0.317717545021    12.000000000000
         H            0.893036070840     2.726177293935     0.493017545021     1.007825032230
         N            0.612146070840     0.707047293935     0.127307545021    14.003074004430
         H           -0.411913929160     0.776997293935     0.151097545021     1.007825032230
         C            1.112076070840    -0.543172706065    -0.106862454979    12.000000000000
         O            0.400046070840    -1.532672706065    -0.280332454979    15.994914619570

  Charge       = 0
  Multiplicity = 1
  Basis Set: AUG-CC-PVTZ
    Blend: AUG-CC-PVTZ
  Basis Set: (AUG-CC-PVTZ AUX)
    Blend: AUG-CC-PVTZ-JKFIT

    Orbital Energies [Eh]
    ---------------------

    Doubly Occupied:

       1A    -20.543935     2A    -20.541183     3A    -15.650159
       4A    -15.628083     5A    -11.416737     6A    -11.382416
       7A    -11.343641     8A    -11.258701     9A     -1.431925
      10A     -1.397778    11A     -1.313240    12A     -1.247462
      13A     -1.091211    14A     -0.938290    15A     -0.901592
      16A     -0.808281    17A     -0.768261    18A     -0.716108
      19A     -0.677711    20A     -0.670929    21A     -0.648607
      22A     -0.616196    23A     -0.602662    24A     -0.571885
      25A     -0.524075    26A     -0.480778    27A     -0.449434
      28A     -0.435590    29A     -0.371574

  @DF-RHF Final Energy:  -412.62268826891852

   => Energetics <=

    Nuclear Repulsion Energy =            357.3029065010414342
    One-Electron Energy =               -1270.9942997599564478
    Two-Electron Energy =                 501.0687049899964904
    Total Energy =                       -412.6226882689185231

  Dipole Moment: [D]
     X:    -3.0683      Y:     4.1135      Z:     0.7853     Total:     5.1916

    SAPT Results
  --------------------------------------------------------------------------------------------------------
    Electrostatics                -10.47783529 [mEh]      -6.57494091 [kcal/mol]     -27.50955277 [kJ/mol]
      Elst10,r                    -12.19479897 [mEh]      -7.65235188 [kcal/mol]     -32.01744028 [kJ/mol]
      Elst12,r                      1.71696367 [mEh]       1.07741097 [kcal/mol]       4.50788751 [kJ/mol]

    Exchange                        1.74900302 [mEh]       1.09751597 [kcal/mol]       4.59200680 [kJ/mol]
      Exch10                        1.29984767 [mEh]       0.81566673 [kcal/mol]       3.41274958 [kJ/mol]
      Exch10(S^2)                   1.29885047 [mEh]       0.81504097 [kcal/mol]       3.41013143 [kJ/mol]
      Exch11(S^2)                  -0.01440012 [mEh]      -0.00903621 [kcal/mol]      -0.03780751 [kJ/mol]
      Exch12(S^2)                   0.46355547 [mEh]       0.29088545 [kcal/mol]       1.21706473 [kJ/mol]

    Induction                      -1.71398514 [mEh]      -1.07554191 [kcal/mol]      -4.50006736 [kJ/mol]
      Ind20,r                      -1.60520114 [mEh]      -1.00727892 [kcal/mol]      -4.21445501 [kJ/mol]
      Ind22                        -0.14222065 [mEh]      -0.08924481 [kcal/mol]      -0.37340027 [kJ/mol]
      Exch-Ind20,r                  0.29380187 [mEh]       0.18436346 [kcal/mol]       0.77137671 [kJ/mol]
      Exch-Ind22                    0.02603081 [mEh]       0.01633458 [kcal/mol]       0.06834390 [kJ/mol]
      delta HF,r (2)               -0.28639604 [mEh]      -0.17971623 [kcal/mol]      -0.75193269 [kJ/mol]

    Dispersion                     -2.64415750 [mEh]      -1.65923388 [kcal/mol]      -6.94223456 [kJ/mol]
      Disp20                       -2.32693453 [mEh]      -1.46017346 [kcal/mol]      -6.10936576 [kJ/mol]
      Disp21                        0.17477679 [mEh]       0.10967409 [kcal/mol]       0.45887640 [kJ/mol]
      Disp22 (SDQ)                 -0.07207907 [mEh]      -0.04523030 [kcal/mol]      -0.18924358 [kJ/mol]
      Disp22 (T)                   -0.50699748 [mEh]      -0.31814572 [kcal/mol]      -1.33112170 [kJ/mol]
      Est. Disp22 (T)              -0.55011057 [mEh]      -0.34519959 [kcal/mol]      -1.44431509 [kJ/mol]
      Exch-Disp20                   0.13018987 [mEh]       0.08169538 [kcal/mol]       0.34181347 [kJ/mol]

  Total HF                        -12.49274660 [mEh]      -7.83931685 [kcal/mol]     -32.79970169 [kJ/mol]
  Total SAPT0                     -14.68949126 [mEh]      -9.21779493 [kcal/mol]     -38.56725398 [kJ/mol]
  Total SAPT2                     -12.63956206 [mEh]      -7.93144494 [kcal/mol]     -33.18516562 [kJ/mol]
  Total SAPT2+                    -13.08697491 [mEh]      -8.21220074 [kcal/mol]     -34.35984790 [kJ/mol]

  Special recipe for scaled SAPT0 (see Manual):
    Electrostatics sSAPT0         -12.19479897 [mEh]      -7.65235188 [kcal/mol]     -32.01744028 [kJ/mol]
    Exchange sSAPT0                 1.29984767 [mEh]       0.81566673 [kcal/mol]       3.41274958 [kJ/mol]
    Induction sSAPT0               -1.59711808 [mEh]      -1.00220672 [kcal/mol]      -4.19323293 [kJ/mol]
    Dispersion sSAPT0              -2.19644456 [mEh]      -1.37828977 [kcal/mol]      -5.76676440 [kJ/mol]
  Total sSAPT0                    -14.68851394 [mEh]      -9.21718165 [kcal/mol]     -38.56468803 [kJ/mol]
  --------------------------------------------------------------------------------------------------------

*** Psi4 exiting successfully. Buy a developer a beer!
