                               Psi4 1.4a2.dev224

  ==> Input File <==

--------------------------------------------------------------------------
#Generated by lconvert.py for sapt job

memory 50 GB

molecule  {
0 1
  C      -1.113630    1.327020    0.275170
  O      -0.467080    2.349390    0.461540
  O      -0.578090    0.136920    0.049620
  H       0.413320    0.203260    0.055490
  C      -2.611430    1.286190    0.277360
  H      -3.006650    2.276890    0.465790
  H      -2.964260    0.915260   -0.682000
  H      -2.953110    0.591800    1.041240
--
0 1
  N       5.730130    1.062110    0.166810
  H       6.123330    0.146720   -0.004900
  C       6.651660    2.110230    0.348270
  O       7.848800    1.891930    0.295390
  C       6.012590    3.389690    0.588880
  H       6.632130    4.256620    0.740350
  C       4.665510    3.469680    0.618260
  H       4.142670    4.398130    0.793560
  N       3.861780    2.379000    0.427850
  H       2.837720    2.448950    0.451640
  C       4.361710    1.128780    0.193680
  O       3.649680    0.139270    0.020210
units angstrom
no_reorient
symmetry c1
}

set {
scf_type DF
basis aug-cc-pvtz
freeze_core True
guess SAD
}
energy('sapt2+')
--------------------------------------------------------------------------

  //              Dimer HF             //
    Molecular point group: c1
  Charge       = 0
  Multiplicity = 1
  Basis Set: AUG-CC-PVTZ
    Blend: AUG-CC-PVTZ
  Basis Set: (AUG-CC-PVTZ AUX)
    Blend: AUG-CC-PVTZ-JKFIT
  @DF-RHF Final Energy:  -640.53306116876581
    Total Energy =                       -640.5330611687658120
  //            Monomer A HF           //
    Molecular point group: c1
  Multiplicity = 1
  Basis Set: AUG-CC-PVTZ
    Blend: AUG-CC-PVTZ
  Basis Set: (AUG-CC-PVTZ AUX)
    Blend: AUG-CC-PVTZ-JKFIT
  @DF-RHF Final Energy:  -227.90267554900001
    Total Energy =                       -227.9026755490000085
  //            Monomer B HF           //
    Molecular point group: c1

    Geometry (in Angstrom), charge = 0, multiplicity = 1:

       Center              X                  Y                   Z               Mass
    ------------   -----------------  -----------------  -----------------  -----------------
      Gh(C)          -4.185009408119    -0.348899324866    -0.027384515503    12.000000000000
      Gh(O)          -3.538459408119     0.673470675134     0.158985484497    15.994914619570
      Gh(O)          -3.649469408119    -1.538999324866    -0.252934515503    15.994914619570
      Gh(H)          -2.658059408119    -1.472659324866    -0.247064515503     1.007825032230
      Gh(C)          -5.682809408119    -0.389729324866    -0.025194515503    12.000000000000
      Gh(H)          -6.078029408119     0.600970675134     0.163235484497     1.007825032230
      Gh(H)          -6.035639408119    -0.760659324866    -0.984554515503     1.007825032230
      Gh(H)          -6.024489408119    -1.084119324866     0.738685484497     1.007825032230
         N            2.658750591881    -0.613809324866    -0.135744515503    14.003074004430
         H            3.051950591881    -1.529199324866    -0.307454515503     1.007825032230
         C            3.580280591881     0.434310675134     0.045715484497    12.000000000000
         O            4.777420591881     0.216010675134    -0.007164515503    15.994914619570
         C            2.941210591881     1.713770675134     0.286325484497    12.000000000000
         H            3.560750591881     2.580700675134     0.437795484497     1.007825032230
         C            1.594130591881     1.793760675134     0.315705484497    12.000000000000
         H            1.071290591881     2.722210675134     0.491005484497     1.007825032230
         N            0.790400591881     0.703080675134     0.125295484497    14.003074004430
         H           -0.233659408119     0.773030675134     0.149085484497     1.007825032230
         C            1.290330591881    -0.547139324866    -0.108874515503    12.000000000000
         O            0.578300591881    -1.536649324866    -0.282344515503    15.994914619570

  Charge       = 0
  Multiplicity = 1
  Basis Set: AUG-CC-PVTZ
    Blend: AUG-CC-PVTZ
  Basis Set: (AUG-CC-PVTZ AUX)
    Blend: AUG-CC-PVTZ-JKFIT

    Orbital Energies [Eh]
    ---------------------

    Doubly Occupied:

       1A    -20.543936     2A    -20.541194     3A    -15.650157
       4A    -15.628084     5A    -11.416739     6A    -11.382418
       7A    -11.343640     8A    -11.258704     9A     -1.431926
      10A     -1.397779    11A     -1.313245    12A     -1.247462
      13A     -1.091213    14A     -0.938294    15A     -0.901591
      16A     -0.808285    17A     -0.768263    18A     -0.716110
      19A     -0.677712    20A     -0.670931    21A     -0.648609
      22A     -0.616196    23A     -0.602664    24A     -0.571886
      25A     -0.524080    26A     -0.480775    27A     -0.449433
      28A     -0.435592    29A     -0.371577

  @DF-RHF Final Energy:  -412.62264511274060

   => Energetics <=

    Nuclear Repulsion Energy =            357.3025732799810612
    One-Electron Energy =               -1270.9934406002446394
    Two-Electron Energy =                 501.0682222075229788
    Total Energy =                       -412.6226451127405994

  Dipole Moment: [D]
     X:    -3.0682      Y:     4.1138      Z:     0.7854     Total:     5.1917

    SAPT Results
  --------------------------------------------------------------------------------------------------------
    Electrostatics                 -6.15515098 [mEh]      -3.86241555 [kcal/mol]     -16.16034667 [kJ/mol]
      Elst10,r                     -7.37770172 [mEh]      -4.62957772 [kcal/mol]     -19.37015319 [kJ/mol]
      Elst12,r                      1.22255074 [mEh]       0.76716217 [kcal/mol]       3.20980652 [kJ/mol]

    Exchange                        0.31315054 [mEh]       0.19650493 [kcal/mol]       0.82217664 [kJ/mol]
      Exch10                        0.21478868 [mEh]       0.13478193 [kcal/mol]       0.56392761 [kJ/mol]
      Exch10(S^2)                   0.21475153 [mEh]       0.13475862 [kcal/mol]       0.56383005 [kJ/mol]
      Exch11(S^2)                  -0.00423761 [mEh]      -0.00265914 [kcal/mol]      -0.01112583 [kJ/mol]
      Exch12(S^2)                   0.10259947 [mEh]       0.06438214 [kcal/mol]       0.26937486 [kJ/mol]

    Induction                      -0.59941927 [mEh]      -0.37614127 [kcal/mol]      -1.57377508 [kJ/mol]
      Ind20,r                      -0.56415447 [mEh]      -0.35401227 [kcal/mol]      -1.48118735 [kJ/mol]
      Ind22                        -0.02372178 [mEh]      -0.01488564 [kcal/mol]      -0.06228153 [kJ/mol]
      Exch-Ind20,r                  0.04510286 [mEh]       0.02830247 [kcal/mol]       0.11841754 [kJ/mol]
      Exch-Ind22                    0.00189650 [mEh]       0.00119007 [kcal/mol]       0.00497927 [kJ/mol]
      delta HF,r (2)               -0.05854238 [mEh]      -0.03673590 [kcal/mol]      -0.15370301 [kJ/mol]

    Dispersion                     -1.22725025 [mEh]      -0.77011116 [kcal/mol]      -3.22214508 [kJ/mol]
      Disp20                       -1.06274793 [mEh]      -0.66688440 [kcal/mol]      -2.79024431 [kJ/mol]
      Disp21                        0.10147300 [mEh]       0.06367527 [kcal/mol]       0.26641734 [kJ/mol]
      Disp22 (SDQ)                 -0.03138029 [mEh]      -0.01969143 [kcal/mol]      -0.08238893 [kJ/mol]
      Disp22 (T)                   -0.24490429 [mEh]      -0.15367976 [kcal/mol]      -0.64299613 [kJ/mol]
      Est. Disp22 (T)              -0.25943028 [mEh]      -0.16279496 [kcal/mol]      -0.68113409 [kJ/mol]
      Exch-Disp20                   0.02483524 [mEh]       0.01558435 [kcal/mol]       0.06520492 [kJ/mol]

  Total HF                         -7.74050703 [mEh]      -4.85724149 [kcal/mol]     -20.32269839 [kJ/mol]
  Total SAPT0                      -8.77841971 [mEh]      -5.50854153 [kcal/mol]     -23.04773778 [kJ/mol]
  Total SAPT2                      -7.47933239 [mEh]      -4.69335193 [kcal/mol]     -19.63698449 [kJ/mol]
  Total SAPT2+                     -7.66866995 [mEh]      -4.81216305 [kcal/mol]     -20.13409019 [kJ/mol]

  Special recipe for scaled SAPT0 (see Manual):
    Electrostatics sSAPT0          -7.37770172 [mEh]      -4.62957772 [kcal/mol]     -19.37015319 [kJ/mol]
    Exchange sSAPT0                 0.21478868 [mEh]       0.13478193 [kcal/mol]       0.56392761 [kJ/mol]
    Induction sSAPT0               -0.57757058 [mEh]      -0.36243101 [kcal/mol]      -1.51641134 [kJ/mol]
    Dispersion sSAPT0              -1.03789979 [mEh]      -0.65129195 [kcal/mol]      -2.72500553 [kJ/mol]
  Total sSAPT0                     -8.77838340 [mEh]      -5.50851875 [kcal/mol]     -23.04764245 [kJ/mol]
  --------------------------------------------------------------------------------------------------------

*** Psi4 exiting successfully. Buy a developer a beer!
