                               Psi4 1.4a2.dev224

  ==> Input File <==

--------------------------------------------------------------------------
#Generated by lconvert.py for sapt job

memory 50 GB

molecule  {
0 1
  C      -1.232730    1.211640   -0.141620
  O      -0.571280    2.242020    0.025620
  N      -0.670580    0.003890   -0.314280
  H       0.343850   -0.090560   -0.308330
  H      -1.244210   -0.806320   -0.446680
  C      -2.738250    1.266760   -0.155890
  H      -3.077970    1.646610    0.804500
  H      -3.202120    0.302860   -0.346210
  H      -3.049990    1.975490   -0.918600
--
0 1
  N       4.721540    1.118250   -0.115800
  H       5.211570    0.242300   -0.233730
  C       5.525170    2.261100    0.034690
  O       6.740730    2.165470    0.019500
  C       4.752580    3.476410    0.197830
  H       5.274340    4.409610    0.320870
  C       3.403410    3.414740    0.192150
  H       2.783010    4.291100    0.309830
  N       2.718330    2.242460    0.037590
  H       1.685540    2.233400    0.036750
  C       3.349220    1.037990   -0.124670
  O       2.752030   -0.025930   -0.266480
units angstrom
no_reorient
symmetry c1
}

set {
scf_type DF
basis aug-cc-pvtz
freeze_core True
guess SAD
}
energy('sapt2+')
--------------------------------------------------------------------------

  //              Dimer HF             //
    Molecular point group: c1
  Charge       = 0
  Multiplicity = 1
  Basis Set: AUG-CC-PVTZ
    Blend: AUG-CC-PVTZ
  Basis Set: (AUG-CC-PVTZ AUX)
    Blend: AUG-CC-PVTZ-JKFIT
  @DF-RHF Final Energy:  -620.70413187729582
    Total Energy =                       -620.7041318772958221
  //            Monomer A HF           //
    Molecular point group: c1
  Multiplicity = 1
  Basis Set: AUG-CC-PVTZ
    Blend: AUG-CC-PVTZ
  Basis Set: (AUG-CC-PVTZ AUX)
    Blend: AUG-CC-PVTZ-JKFIT
  @DF-RHF Final Energy:  -208.06135990311182
    Total Energy =                       -208.0613599031118213
  //            Monomer B HF           //
    Molecular point group: c1

    Geometry (in Angstrom), charge = 0, multiplicity = 1:

       Center              X                  Y                   Z               Mass
    ------------   -----------------  -----------------  -----------------  -----------------
      Gh(C)          -3.564968536648    -0.445845462414    -0.084363566941    12.000000000000
      Gh(O)          -2.903518536648     0.584534537586     0.082876433059    15.994914619570
      Gh(N)          -3.002818536648    -1.653595462414    -0.257023566941    14.003074004430
      Gh(H)          -1.988388536648    -1.748045462414    -0.251073566941     1.007825032230
      Gh(H)          -3.576448536648    -2.463805462414    -0.389423566941     1.007825032230
      Gh(C)          -5.070488536648    -0.390725462414    -0.098633566941    12.000000000000
      Gh(H)          -5.410208536648    -0.010875462414     0.861756433059     1.007825032230
      Gh(H)          -5.534358536648    -1.354625462414    -0.288953566941     1.007825032230
      Gh(H)          -5.382228536648     0.318004537586    -0.861343566941     1.007825032230
         N            2.389301463352    -0.539235462414    -0.058543566941    14.003074004430
         H            2.879331463352    -1.415185462414    -0.176473566941     1.007825032230
         C            3.192931463352     0.603614537586     0.091946433059    12.000000000000
         O            4.408491463352     0.507984537586     0.076756433059    15.994914619570
         C            2.420341463352     1.818924537586     0.255086433059    12.000000000000
         H            2.942101463352     2.752124537586     0.378126433059     1.007825032230
         C            1.071171463352     1.757254537586     0.249406433059    12.000000000000
         H            0.450771463352     2.633614537586     0.367086433059     1.007825032230
         N            0.386091463352     0.584974537586     0.094846433059    14.003074004430
         H           -0.646698536648     0.575914537586     0.094006433059     1.007825032230
         C            1.016981463352    -0.619495462414    -0.067413566941    12.000000000000
         O            0.419791463352    -1.683415462414    -0.209223566941    15.994914619570

  Charge       = 0
  Multiplicity = 1
  Basis Set: AUG-CC-PVTZ
    Blend: AUG-CC-PVTZ
  Basis Set: (AUG-CC-PVTZ AUX)
    Blend: AUG-CC-PVTZ-JKFIT

    Orbital Energies [Eh]
    ---------------------

    Doubly Occupied:

       1A    -20.542959     2A    -20.542748     3A    -15.651068
       4A    -15.627905     5A    -11.418068     6A    -11.381700
       7A    -11.343056     8A    -11.258010     9A     -1.432443
      10A     -1.396977    11A     -1.314128    12A     -1.246680
      13A     -1.090286    14A     -0.938177    15A     -0.901229
      16A     -0.806693    17A     -0.768177    18A     -0.715270
      19A     -0.677145    20A     -0.670735    21A     -0.649680
      22A     -0.615291    23A     -0.602460    24A     -0.571533
      25A     -0.524699    26A     -0.481558    27A     -0.449161
      28A     -0.435599    29A     -0.371056

  @DF-RHF Final Energy:  -412.62237452113953

   => Energetics <=

    Nuclear Repulsion Energy =            357.1695921741259667
    One-Electron Energy =               -1270.7349496647141223
    Two-Electron Energy =                 500.9429829694486784
    Total Energy =                       -412.6223745211395340

  Dipole Moment: [D]
     X:    -3.5800      Y:     3.7769      Z:     0.5097     Total:     5.2289

    SAPT Results
  --------------------------------------------------------------------------------------------------------
    Electrostatics                -20.09834272 [mEh]     -12.61190046 [kcal/mol]     -52.76819154 [kJ/mol]
      Elst10,r                    -22.42876231 [mEh]     -14.07426083 [kcal/mol]     -58.88670733 [kJ/mol]
      Elst12,r                      2.33041959 [mEh]       1.46236037 [kcal/mol]       6.11851579 [kJ/mol]

    Exchange                        8.56476309 [mEh]       5.37446998 [kcal/mol]      22.48678240 [kJ/mol]
      Exch10                        6.94496058 [mEh]       4.35802856 [kcal/mol]      18.23399149 [kJ/mol]
      Exch10(S^2)                   6.92372129 [mEh]       4.34470070 [kcal/mol]      18.17822774 [kJ/mol]
      Exch11(S^2)                  -0.03895279 [mEh]      -0.02444324 [kcal/mol]      -0.10227053 [kJ/mol]
      Exch12(S^2)                   1.65875530 [mEh]       1.04088467 [kcal/mol]       4.35506144 [kJ/mol]

    Induction                      -5.29488482 [mEh]      -3.32259039 [kcal/mol]     -13.90171819 [kJ/mol]
      Ind20,r                      -5.16665347 [mEh]      -3.24212400 [kcal/mol]     -13.56504681 [kJ/mol]
      Ind22                        -0.56283260 [mEh]      -0.35318279 [kcal/mol]      -1.47771680 [kJ/mol]
      Exch-Ind20,r                  1.66703135 [mEh]       1.04607797 [kcal/mol]       4.37679021 [kJ/mol]
      Exch-Ind22                    0.18159910 [mEh]       0.11395515 [kcal/mol]       0.47678836 [kJ/mol]
      delta HF,r (2)               -1.41402920 [mEh]      -0.88731672 [kcal/mol]      -3.71253315 [kJ/mol]

    Dispersion                     -5.86163360 [mEh]      -3.67823061 [kcal/mol]     -15.38971689 [kJ/mol]
      Disp20                       -5.53221079 [mEh]      -3.47151468 [kcal/mol]     -14.52481742 [kJ/mol]
      Disp21                        0.35625367 [mEh]       0.22355255 [kcal/mol]       0.93534388 [kJ/mol]
      Disp22 (SDQ)                 -0.08305521 [mEh]      -0.05211793 [kcal/mol]      -0.21806143 [kJ/mol]
      Disp22 (T)                   -1.08149462 [mEh]      -0.67864812 [kcal/mol]      -2.83946373 [kJ/mol]
      Est. Disp22 (T)              -1.20566620 [mEh]      -0.75656696 [kcal/mol]      -3.16547617 [kJ/mol]
      Exch-Disp20                   0.60304493 [mEh]       0.37841641 [kcal/mol]       1.58329425 [kJ/mol]

  Total HF                        -20.39745304 [mEh]     -12.79959503 [kcal/mol]     -53.55350559 [kJ/mol]
  Total SAPT0                     -25.32661890 [mEh]     -15.89269330 [kcal/mol]     -66.49502876 [kJ/mol]
  Total SAPT2                     -21.75763030 [mEh]     -13.65311914 [kcal/mol]     -57.12465049 [kJ/mol]
  Total SAPT2+                    -22.69009805 [mEh]     -14.23825149 [kcal/mol]     -59.57284422 [kJ/mol]

  Special recipe for scaled SAPT0 (see Manual):
    Electrostatics sSAPT0         -22.42876231 [mEh]     -14.07426083 [kcal/mol]     -58.88670733 [kJ/mol]
    Exchange sSAPT0                 6.94496058 [mEh]       4.35802856 [kcal/mol]      18.23399149 [kJ/mol]
    Induction sSAPT0               -4.89826279 [mEh]      -3.07370631 [kcal/mol]     -12.86038718 [kJ/mol]
    Dispersion sSAPT0              -4.92359909 [mEh]      -3.08960507 [kcal/mol]     -12.92690763 [kJ/mol]
  Total sSAPT0                    -25.30566361 [mEh]     -15.87954365 [kcal/mol]     -66.44001065 [kJ/mol]
  --------------------------------------------------------------------------------------------------------

*** Psi4 exiting successfully. Buy a developer a beer!
