                               Psi4 1.4a2.dev224

  ==> Input File <==

--------------------------------------------------------------------------
#Generated by lconvert.py for sapt job

memory 50 GB

molecule  {
0 1
  C      -1.232730    1.211640   -0.141620
  O      -0.571280    2.242020    0.025620
  N      -0.670580    0.003890   -0.314280
  H       0.343850   -0.090560   -0.308330
  H      -1.244210   -0.806320   -0.446680
  C      -2.738250    1.266760   -0.155890
  H      -3.077970    1.646610    0.804500
  H      -3.202120    0.302860   -0.346210
  H      -3.049990    1.975490   -0.918600
--
0 1
  N       5.242320    1.115450   -0.113560
  H       5.732350    0.239490   -0.231500
  C       6.045950    2.258290    0.036920
  O       7.261510    2.162670    0.021740
  C       5.273350    3.473610    0.200060
  H       5.795120    4.406800    0.323100
  C       3.924190    3.411930    0.194390
  H       3.303790    4.288290    0.312060
  N       3.239110    2.239650    0.039820
  H       2.206320    2.230590    0.038980
  C       3.870000    1.035180   -0.122440
  O       3.272810   -0.028740   -0.264250
units angstrom
no_reorient
symmetry c1
}

set {
scf_type DF
basis aug-cc-pvtz
freeze_core True
guess SAD
}
energy('sapt2+')
--------------------------------------------------------------------------

  //              Dimer HF             //
    Molecular point group: c1
  Charge       = 0
  Multiplicity = 1
  Basis Set: AUG-CC-PVTZ
    Blend: AUG-CC-PVTZ
  Basis Set: (AUG-CC-PVTZ AUX)
    Blend: AUG-CC-PVTZ-JKFIT
  @DF-RHF Final Energy:  -620.69698342845470
    Total Energy =                       -620.6969834284547005
  //            Monomer A HF           //
    Molecular point group: c1
  Multiplicity = 1
  Basis Set: AUG-CC-PVTZ
    Blend: AUG-CC-PVTZ
  Basis Set: (AUG-CC-PVTZ AUX)
    Blend: AUG-CC-PVTZ-JKFIT
  @DF-RHF Final Energy:  -208.06130584818240
    Total Energy =                       -208.0613058481823998
  //            Monomer B HF           //
    Molecular point group: c1

    Geometry (in Angstrom), charge = 0, multiplicity = 1:

       Center              X                  Y                   Z               Mass
    ------------   -----------------  -----------------  -----------------  -----------------
      Gh(C)          -3.906018156128    -0.444007694382    -0.085826412637    12.000000000000
      Gh(O)          -3.244568156128     0.586372305618     0.081413587363    15.994914619570
      Gh(N)          -3.343868156128    -1.651757694382    -0.258486412637    14.003074004430
      Gh(H)          -2.329438156128    -1.746207694382    -0.252536412637     1.007825032230
      Gh(H)          -3.917498156128    -2.461967694382    -0.390886412637     1.007825032230
      Gh(C)          -5.411538156128    -0.388887694382    -0.100096412637    12.000000000000
      Gh(H)          -5.751258156128    -0.009037694382     0.860293587363     1.007825032230
      Gh(H)          -5.875408156128    -1.352787694382    -0.290416412637     1.007825032230
      Gh(H)          -5.723278156128     0.319842305618    -0.862806412637     1.007825032230
         N            2.569031843872    -0.540197694382    -0.057766412637    14.003074004430
         H            3.059061843872    -1.416157694382    -0.175706412637     1.007825032230
         C            3.372661843872     0.602642305618     0.092713587363    12.000000000000
         O            4.588221843872     0.507022305618     0.077533587363    15.994914619570
         C            2.600061843872     1.817962305618     0.255853587363    12.000000000000
         H            3.121831843872     2.751152305618     0.378893587363     1.007825032230
         C            1.250901843872     1.756282305618     0.250183587363    12.000000000000
         H            0.630501843872     2.632642305618     0.367853587363     1.007825032230
         N            0.565821843872     0.584002305618     0.095613587363    14.003074004430
         H           -0.466968156128     0.574942305618     0.094773587363     1.007825032230
         C            1.196711843872    -0.620467694382    -0.066646412637    12.000000000000
         O            0.599521843872    -1.684387694382    -0.208456412637    15.994914619570

  Charge       = 0
  Multiplicity = 1
  Basis Set: AUG-CC-PVTZ
    Blend: AUG-CC-PVTZ
  Basis Set: (AUG-CC-PVTZ AUX)
    Blend: AUG-CC-PVTZ-JKFIT

    Orbital Energies [Eh]
    ---------------------

    Doubly Occupied:

       1A    -20.542960     2A    -20.542765     3A    -15.651060
       4A    -15.627910     5A    -11.418068     6A    -11.381702
       7A    -11.343050     8A    -11.258012     9A     -1.432449
      10A     -1.396981    11A     -1.314134    12A     -1.246683
      13A     -1.090287    14A     -0.938178    15A     -0.901233
      16A     -0.806693    17A     -0.768179    18A     -0.715268
      19A     -0.677148    20A     -0.670738    21A     -0.649684
      22A     -0.615294    23A     -0.602460    24A     -0.571536
      25A     -0.524703    26A     -0.481559    27A     -0.449164
      28A     -0.435603    29A     -0.371059

  @DF-RHF Final Energy:  -412.62231143926499

   => Energetics <=

    Nuclear Repulsion Energy =            357.1696335589452360
    One-Electron Energy =               -1270.7347705967069942
    Two-Electron Energy =                 500.9428255984968246
    Total Energy =                       -412.6223114392649904

  Dipole Moment: [D]
     X:    -3.5796      Y:     3.7770      Z:     0.5096     Total:     5.2287

    SAPT Results
  --------------------------------------------------------------------------------------------------------
    Electrostatics                -11.08710561 [mEh]      -6.95726381 [kcal/mol]     -29.10919177 [kJ/mol]
      Elst10,r                    -12.90883284 [mEh]      -8.10041490 [kcal/mol]     -33.89213595 [kJ/mol]
      Elst12,r                      1.82172723 [mEh]       1.14315109 [kcal/mol]       4.78294418 [kJ/mol]

    Exchange                        1.50842075 [mEh]       0.94654831 [kcal/mol]       3.96035814 [kJ/mol]
      Exch10                        1.12621820 [mEh]       0.70671259 [kcal/mol]       2.95688549 [kJ/mol]
      Exch10(S^2)                   1.12546714 [mEh]       0.70624129 [kcal/mol]       2.95491356 [kJ/mol]
      Exch11(S^2)                  -0.01817155 [mEh]      -0.01140282 [kcal/mol]      -0.04770940 [kJ/mol]
      Exch12(S^2)                   0.40037410 [mEh]       0.25123854 [kcal/mol]       1.05118205 [kJ/mol]

    Induction                      -1.66423426 [mEh]      -1.04432277 [kcal/mol]      -4.36944646 [kJ/mol]
      Ind20,r                      -1.56784648 [mEh]      -0.98383852 [kcal/mol]      -4.11638036 [kJ/mol]
      Ind22                        -0.09615460 [mEh]      -0.06033792 [kcal/mol]      -0.25245386 [kJ/mol]
      Exch-Ind20,r                  0.25186587 [mEh]       0.15804822 [kcal/mol]       0.66127375 [kJ/mol]
      Exch-Ind22                    0.01544670 [mEh]       0.00969295 [kcal/mol]       0.04055532 [kJ/mol]
      delta HF,r (2)               -0.26754577 [mEh]      -0.16788750 [kcal/mol]      -0.70244131 [kJ/mol]

    Dispersion                     -2.51024547 [mEh]      -1.57520281 [kcal/mol]      -6.59064857 [kJ/mol]
      Disp20                       -2.24064662 [mEh]      -1.40602698 [kcal/mol]      -5.88281689 [kJ/mol]
      Disp21                        0.17085529 [mEh]       0.10721331 [kcal/mol]       0.44858049 [kJ/mol]
      Disp22 (SDQ)                 -0.03889468 [mEh]      -0.02440678 [kcal/mol]      -0.10211796 [kJ/mol]
      Disp22 (T)                   -0.48003251 [mEh]      -0.30122495 [kcal/mol]      -1.26032518 [kJ/mol]
      Est. Disp22 (T)              -0.51869337 [mEh]      -0.32548500 [kcal/mol]      -1.36182925 [kJ/mol]
      Exch-Disp20                   0.11713391 [mEh]       0.07350264 [kcal/mol]       0.30753503 [kJ/mol]

  Total HF                        -13.36614101 [mEh]      -8.38738011 [kcal/mol]     -35.09279838 [kJ/mol]
  Total SAPT0                     -15.48965372 [mEh]      -9.71990446 [kcal/mol]     -40.66808024 [kJ/mol]
  Total SAPT2                     -13.36643184 [mEh]      -8.38756261 [kcal/mol]     -35.09356195 [kJ/mol]
  Total SAPT2+                    -13.75316459 [mEh]      -8.63024108 [kcal/mol]     -36.10892866 [kJ/mol]

  Special recipe for scaled SAPT0 (see Manual):
    Electrostatics sSAPT0         -12.90883284 [mEh]      -8.10041490 [kcal/mol]     -33.89213595 [kJ/mol]
    Exchange sSAPT0                 1.12621820 [mEh]       0.70671259 [kcal/mol]       2.95688549 [kJ/mol]
    Induction sSAPT0               -1.58302180 [mEh]      -0.99336118 [kcal/mol]      -4.15622316 [kJ/mol]
    Dispersion sSAPT0              -2.12327805 [mEh]      -1.33237709 [kcal/mol]      -5.57466576 [kJ/mol]
  Total sSAPT0                    -15.48891449 [mEh]      -9.71944058 [kcal/mol]     -40.66613938 [kJ/mol]
  --------------------------------------------------------------------------------------------------------

*** Psi4 exiting successfully. Buy a developer a beer!
