                               Psi4 1.4a2.dev224

  ==> Input File <==

--------------------------------------------------------------------------
#Generated by lconvert.py for sapt job

memory 50 GB

molecule  {
0 1
  C      -1.232730    1.211640   -0.141620
  O      -0.571280    2.242020    0.025620
  N      -0.670580    0.003890   -0.314280
  H       0.343850   -0.090560   -0.308330
  H      -1.244210   -0.806320   -0.446680
  C      -2.738250    1.266760   -0.155890
  H      -3.077970    1.646610    0.804500
  H      -3.202120    0.302860   -0.346210
  H      -3.049990    1.975490   -0.918600
--
0 1
  N       5.763100    1.112640   -0.111330
  H       6.253130    0.236680   -0.229260
  C       6.566720    2.255480    0.039160
  O       7.782290    2.159860    0.023970
  C       5.794130    3.470800    0.202300
  H       6.315900    4.403990    0.325330
  C       4.444970    3.409120    0.196620
  H       3.824570    4.285480    0.314300
  N       3.759890    2.236840    0.042060
  H       2.727100    2.227780    0.041220
  C       4.390780    1.032370   -0.120200
  O       3.793590   -0.031540   -0.262010
units angstrom
no_reorient
symmetry c1
}

set {
scf_type DF
basis aug-cc-pvtz
freeze_core True
guess SAD
}
energy('sapt2+')
--------------------------------------------------------------------------

  //              Dimer HF             //
    Molecular point group: c1
  Charge       = 0
  Multiplicity = 1
  Basis Set: AUG-CC-PVTZ
    Blend: AUG-CC-PVTZ
  Basis Set: (AUG-CC-PVTZ AUX)
    Blend: AUG-CC-PVTZ-JKFIT
  @DF-RHF Final Energy:  -620.69228828568566
    Total Energy =                       -620.6922882856856631
  //            Monomer A HF           //
    Molecular point group: c1
  Multiplicity = 1
  Basis Set: AUG-CC-PVTZ
    Blend: AUG-CC-PVTZ
  Basis Set: (AUG-CC-PVTZ AUX)
    Blend: AUG-CC-PVTZ-JKFIT
  @DF-RHF Final Energy:  -208.06126914176519
    Total Energy =                       -208.0612691417651945
  //            Monomer B HF           //
    Molecular point group: c1

    Geometry (in Angstrom), charge = 0, multiplicity = 1:

       Center              X                  Y                   Z               Mass
    ------------   -----------------  -----------------  -----------------  -----------------
      Gh(C)          -4.247067775607    -0.442168406275    -0.087290838059    12.000000000000
      Gh(O)          -3.585617775607     0.588211593725     0.079949161941    15.994914619570
      Gh(N)          -3.684917775607    -1.649918406275    -0.259950838059    14.003074004430
      Gh(H)          -2.670487775607    -1.744368406275    -0.254000838059     1.007825032230
      Gh(H)          -4.258547775607    -2.460128406275    -0.392350838059     1.007825032230
      Gh(C)          -5.752587775607    -0.387048406275    -0.101560838059    12.000000000000
      Gh(H)          -6.092307775607    -0.007198406275     0.858829161941     1.007825032230
      Gh(H)          -6.216457775607    -1.350948406275    -0.291880838059     1.007825032230
      Gh(H)          -6.064327775607     0.321681593725    -0.864270838059     1.007825032230
         N            2.748762224393    -0.541168406275    -0.057000838059    14.003074004430
         H            3.238792224393    -1.417128406275    -0.174930838059     1.007825032230
         C            3.552382224393     0.601671593725     0.093489161941    12.000000000000
         O            4.767952224393     0.506051593725     0.078299161941    15.994914619570
         C            2.779792224393     1.816991593725     0.256629161941    12.000000000000
         H            3.301562224393     2.750181593725     0.379659161941     1.007825032230
         C            1.430632224393     1.755311593725     0.250949161941    12.000000000000
         H            0.810232224393     2.631671593725     0.368629161941     1.007825032230
         N            0.745552224393     0.583031593725     0.096389161941    14.003074004430
         H           -0.287237775607     0.573971593725     0.095549161941     1.007825032230
         C            1.376442224393    -0.621438406275    -0.065870838059    12.000000000000
         O            0.779252224393    -1.685348406275    -0.207680838059    15.994914619570

  Charge       = 0
  Multiplicity = 1
  Basis Set: AUG-CC-PVTZ
    Blend: AUG-CC-PVTZ
  Basis Set: (AUG-CC-PVTZ AUX)
    Blend: AUG-CC-PVTZ-JKFIT

    Orbital Energies [Eh]
    ---------------------

    Doubly Occupied:

       1A    -20.542959     2A    -20.542773     3A    -15.651055
       4A    -15.627912     5A    -11.418069     6A    -11.381702
       7A    -11.343049     8A    -11.258014     9A     -1.432455
      10A     -1.396978    11A     -1.314139    12A     -1.246685
      13A     -1.090289    14A     -0.938181    15A     -0.901234
      16A     -0.806696    17A     -0.768181    18A     -0.715270
      19A     -0.677148    20A     -0.670743    21A     -0.649689
      22A     -0.615292    23A     -0.602462    24A     -0.571536
      25A     -0.524709    26A     -0.481557    27A     -0.449163
      28A     -0.435605    29A     -0.371061

  @DF-RHF Final Energy:  -412.62227610838124

   => Energetics <=

    Nuclear Repulsion Energy =            357.1699839452878678
    One-Electron Energy =               -1270.7353049596133587
    Two-Electron Energy =                 500.9430449059442481
    Total Energy =                       -412.6222761083812429

  Dipole Moment: [D]
     X:    -3.5796      Y:     3.7771      Z:     0.5097     Total:     5.2288

    SAPT Results
  --------------------------------------------------------------------------------------------------------
    Electrostatics                 -6.93828807 [mEh]      -4.35384150 [kcal/mol]     -18.21647282 [kJ/mol]
      Elst10,r                     -8.30139963 [mEh]      -5.20920692 [kcal/mol]     -21.79532174 [kJ/mol]
      Elst12,r                      1.36311156 [mEh]       0.85536542 [kcal/mol]       3.57884892 [kJ/mol]

    Exchange                        0.26754119 [mEh]       0.16788463 [kcal/mol]       0.70242931 [kJ/mol]
      Exch10                        0.18398336 [mEh]       0.11545130 [kcal/mol]       0.48304826 [kJ/mol]
      Exch10(S^2)                   0.18395659 [mEh]       0.11543451 [kcal/mol]       0.48297797 [kJ/mol]
      Exch11(S^2)                  -0.00478221 [mEh]      -0.00300088 [kcal/mol]      -0.01255569 [kJ/mol]
      Exch12(S^2)                   0.08834004 [mEh]       0.05543421 [kcal/mol]       0.23193675 [kJ/mol]

    Induction                      -0.63238754 [mEh]      -0.39682917 [kcal/mol]      -1.66033325 [kJ/mol]
      Ind20,r                      -0.60428211 [mEh]      -0.37919275 [kcal/mol]      -1.58654245 [kJ/mol]
      Ind22                        -0.00724353 [mEh]      -0.00454538 [kcal/mol]      -0.01901787 [kJ/mol]
      Exch-Ind20,r                  0.03964795 [mEh]       0.02487947 [kcal/mol]       0.10409569 [kJ/mol]
      Exch-Ind22                    0.00047526 [mEh]       0.00029823 [kcal/mol]       0.00124779 [kJ/mol]
      delta HF,r (2)               -0.06098512 [mEh]      -0.03826874 [kcal/mol]      -0.16011640 [kJ/mol]

    Dispersion                     -1.17567891 [mEh]      -0.73774966 [kcal/mol]      -3.08674456 [kJ/mol]
      Disp20                       -1.03572109 [mEh]      -0.64992480 [kcal/mol]      -2.71928536 [kJ/mol]
      Disp21                        0.10144085 [mEh]       0.06365509 [kcal/mol]       0.26633291 [kJ/mol]
      Disp22 (SDQ)                 -0.01606638 [mEh]      -0.01008180 [kcal/mol]      -0.04218227 [kJ/mol]
      Disp22 (T)                   -0.23418961 [mEh]      -0.14695620 [kcal/mol]      -0.61486473 [kJ/mol]
      Est. Disp22 (T)              -0.24735893 [mEh]      -0.15522007 [kcal/mol]      -0.64944077 [kJ/mol]
      Exch-Disp20                   0.02202663 [mEh]       0.01382192 [kcal/mol]       0.05783092 [kJ/mol]

  Total HF                         -8.74303554 [mEh]      -5.48633763 [kcal/mol]     -22.95483665 [kJ/mol]
  Total SAPT0                      -9.75673000 [mEh]      -6.12244051 [kcal/mol]     -25.61629108 [kJ/mol]
  Total SAPT2                      -8.31682887 [mEh]      -5.21888891 [kcal/mol]     -21.83583119 [kJ/mol]
  Total SAPT2+                     -8.47881332 [mEh]      -5.32053569 [kcal/mol]     -22.26112132 [kJ/mol]

  Special recipe for scaled SAPT0 (see Manual):
    Electrostatics sSAPT0          -8.30139963 [mEh]      -5.20920692 [kcal/mol]     -21.79532174 [kJ/mol]
    Exchange sSAPT0                 0.18398336 [mEh]       0.11545130 [kcal/mol]       0.48304826 [kJ/mol]
    Induction sSAPT0               -0.62560196 [mEh]      -0.39257116 [kcal/mol]      -1.64251771 [kJ/mol]
    Dispersion sSAPT0              -1.01368484 [mEh]      -0.63609684 [kcal/mol]      -2.66142919 [kJ/mol]
  Total sSAPT0                     -9.75670307 [mEh]      -6.12242361 [kcal/mol]     -25.61622038 [kJ/mol]
  --------------------------------------------------------------------------------------------------------

*** Psi4 exiting successfully. Buy a developer a beer!
