                               Psi4 1.4a2.dev224

  ==> Input File <==

--------------------------------------------------------------------------
#Generated by lconvert.py for sapt job

memory 50 GB

molecule  {
0 1
  C       0.712640    1.121000    0.060540
  H       1.357840    1.986400    0.127740
  C       1.258240   -0.159250    0.124230
  H       2.324950   -0.287100    0.246740
  C       0.426890   -1.274530    0.042650
  H       0.850450   -2.268430    0.094750
  C      -0.949580   -1.110070   -0.100310
  H      -1.594460   -1.976270   -0.163710
  C      -1.495530    0.171050   -0.161550
  H      -2.563780    0.299220   -0.273700
  C      -0.663830    1.286640   -0.083400
  H      -1.086900    2.281000   -0.132890
--
0 1
  C       2.312590    1.106710    4.639560
  H       2.957430    1.972890    4.703310
  C       2.858540   -0.174440    4.701080
  H       3.926750   -0.302590    4.813820
  C       2.026890   -1.290040    4.622430
  H       2.449970   -2.284390    4.672080
  C       0.650490   -1.124410    4.477710
  H       0.005390   -1.989820    4.410080
  C       0.104930    0.155830    4.413740
  H      -0.961700    0.283650    4.290560
  C       0.936210    1.271110    4.495810
  H       0.512680    2.265010    4.443440
units angstrom
no_reorient
symmetry c1
}

set {
scf_type DF
basis aug-cc-pvtz
freeze_core True
guess SAD
}
energy('sapt2+')
--------------------------------------------------------------------------

  //              Dimer HF             //
    Molecular point group: c1
  Charge       = 0
  Multiplicity = 1
  Basis Set: AUG-CC-PVTZ
    Blend: AUG-CC-PVTZ
  Basis Set: (AUG-CC-PVTZ AUX)
    Blend: AUG-CC-PVTZ-JKFIT
  @DF-RHF Final Energy:  -461.56175400508016
    Total Energy =                       -461.5617540050801608
  //            Monomer A HF           //
    Molecular point group: c1
  Multiplicity = 1
  Basis Set: AUG-CC-PVTZ
    Blend: AUG-CC-PVTZ
  Basis Set: (AUG-CC-PVTZ AUX)
    Blend: AUG-CC-PVTZ-JKFIT
  @DF-RHF Final Energy:  -230.78136098731164
    Total Energy =                       -230.7813609873116434
  //            Monomer B HF           //
    Molecular point group: c1

    Geometry (in Angstrom), charge = 0, multiplicity = 1:

       Center              X                  Y                   Z               Mass
    ------------   -----------------  -----------------  -----------------  -----------------
      Gh(C)           0.031099096086     1.122700193696    -2.208832423403    12.000000000000
      Gh(H)           0.676299096086     1.988100193696    -2.141632423403     1.007825032230
      Gh(C)           0.576699096086    -0.157549806304    -2.145142423403    12.000000000000
      Gh(H)           1.643409096086    -0.285399806304    -2.022632423403     1.007825032230
      Gh(C)          -0.254650903914    -1.272829806304    -2.226722423403    12.000000000000
      Gh(H)           0.168909096086    -2.266729806304    -2.174622423403     1.007825032230
      Gh(C)          -1.631120903914    -1.108369806304    -2.369682423403    12.000000000000
      Gh(H)          -2.276000903914    -1.974569806304    -2.433082423403     1.007825032230
      Gh(C)          -2.177070903914     0.172750193696    -2.430922423403    12.000000000000
      Gh(H)          -3.245320903914     0.300920193696    -2.543072423403     1.007825032230
      Gh(C)          -1.345370903914     1.288340193696    -2.352772423403    12.000000000000
      Gh(H)          -1.768440903914     2.282700193696    -2.402262423403     1.007825032230
         C            1.631049096086     1.108410193696     2.370187576597    12.000000000000
         H            2.275889096086     1.974590193696     2.433937576597     1.007825032230
         C            2.176999096086    -0.172739806304     2.431707576597    12.000000000000
         H            3.245209096086    -0.300889806304     2.544447576597     1.007825032230
         C            1.345349096086    -1.288339806304     2.353057576597    12.000000000000
         H            1.768429096086    -2.282689806304     2.402707576597     1.007825032230
         C           -0.031050903914    -1.122709806304     2.208337576597    12.000000000000
         H           -0.676150903914    -1.988119806304     2.140707576597     1.007825032230
         C           -0.576610903914     0.157530193696     2.144367576597    12.000000000000
         H           -1.643240903914     0.285350193696     2.021187576597     1.007825032230
         C            0.254669096086     1.272810193696     2.226437576597    12.000000000000
         H           -0.168860903914     2.266710193696     2.174067576597     1.007825032230

  Charge       = 0
  Multiplicity = 1
  Basis Set: AUG-CC-PVTZ
    Blend: AUG-CC-PVTZ
  Basis Set: (AUG-CC-PVTZ AUX)
    Blend: AUG-CC-PVTZ-JKFIT

    Orbital Energies [Eh]
    ---------------------

    Doubly Occupied:

       1A    -11.236248     2A    -11.235667     3A    -11.235643
       4A    -11.234417     5A    -11.234413     6A    -11.233791
       7A     -1.150505     8A     -1.014970     9A     -1.014770
      10A     -0.824192    11A     -0.824134    12A     -0.709713
      13A     -0.644040    14A     -0.619254    15A     -0.588229
      16A     -0.587961    17A     -0.502493    18A     -0.495021
      19A     -0.494755    20A     -0.336907    21A     -0.336787

  @DF-RHF Final Energy:  -230.78136080343498

   => Energetics <=

    Nuclear Repulsion Energy =            203.7116766480473018
    One-Electron Energy =                -713.8782673091446895
    Two-Electron Energy =                 279.3852298576624094
    Total Energy =                       -230.7813608034350068

  Dipole Moment: [D]
     X:     0.0008      Y:    -0.0001      Z:    -0.0118     Total:     0.0118

    SAPT Results
  --------------------------------------------------------------------------------------------------------
    Electrostatics                  0.39019030 [mEh]       0.24484811 [kcal/mol]       1.02444449 [kJ/mol]
      Elst10,r                      0.55837980 [mEh]       0.35038862 [kcal/mol]       1.46602598 [kJ/mol]
      Elst12,r                     -0.16818951 [mEh]      -0.10554051 [kcal/mol]      -0.44158148 [kJ/mol]

    Exchange                        0.59983205 [mEh]       0.37640029 [kcal/mol]       1.57485883 [kJ/mol]
      Exch10                        0.59434929 [mEh]       0.37295981 [kcal/mol]       1.56046384 [kJ/mol]
      Exch10(S^2)                   0.59430391 [mEh]       0.37293133 [kcal/mol]       1.56034470 [kJ/mol]
      Exch11(S^2)                   0.03326526 [mEh]       0.02087427 [kcal/mol]       0.08733794 [kJ/mol]
      Exch12(S^2)                  -0.02778250 [mEh]      -0.01743378 [kcal/mol]      -0.07294295 [kJ/mol]

    Induction                      -0.17410474 [mEh]      -0.10925237 [kcal/mol]      -0.45711192 [kJ/mol]
      Ind20,r                      -0.35813830 [mEh]      -0.22473517 [kcal/mol]      -0.94029197 [kJ/mol]
      Ind22                         0.02512855 [mEh]       0.01576840 [kcal/mol]       0.06597499 [kJ/mol]
      Exch-Ind20,r                  0.20366260 [mEh]       0.12780021 [kcal/mol]       0.53471608 [kJ/mol]
      Exch-Ind22                   -0.01428986 [mEh]      -0.00896702 [kcal/mol]      -0.03751802 [kJ/mol]
      delta HF,r (2)               -0.03046773 [mEh]      -0.01911879 [kcal/mol]      -0.07999301 [kJ/mol]

    Dispersion                     -3.17070017 [mEh]      -1.98964440 [kcal/mol]      -8.32467215 [kJ/mol]
      Disp20                       -3.91052550 [mEh]      -2.45389180 [kcal/mol]     -10.26708329 [kJ/mol]
      Disp21                        1.31443520 [mEh]       0.82482054 [kcal/mol]       3.45104914 [kJ/mol]
      Disp22 (SDQ)                  0.20121491 [mEh]       0.12626426 [kcal/mol]       0.52828968 [kJ/mol]
      Disp22 (T)                   -0.89225502 [mEh]      -0.55989848 [kcal/mol]      -2.34261523 [kJ/mol]
      Est. Disp22 (T)              -0.95044956 [mEh]      -0.59641610 [kcal/mol]      -2.49540497 [kJ/mol]
      Exch-Disp20                   0.17462477 [mEh]       0.10957870 [kcal/mol]       0.45847728 [kJ/mol]

  Total HF                          0.96778567 [mEh]       0.60729467 [kcal/mol]       2.54092092 [kJ/mol]
  Total SAPT0                      -2.76811506 [mEh]      -1.73701843 [kcal/mol]      -7.26768509 [kJ/mol]
  Total SAPT2                      -2.91998311 [mEh]      -1.83231707 [kcal/mol]      -7.66641461 [kJ/mol]
  Total SAPT2+                     -2.35478256 [mEh]      -1.47764836 [kcal/mol]      -6.18248075 [kJ/mol]

  Special recipe for scaled SAPT0 (see Manual):
    Electrostatics sSAPT0           0.55837980 [mEh]       0.35038862 [kcal/mol]       1.46602598 [kJ/mol]
    Exchange sSAPT0                 0.59434929 [mEh]       0.37295981 [kcal/mol]       1.56046384 [kJ/mol]
    Induction sSAPT0               -0.18489677 [mEh]      -0.11602447 [kcal/mol]      -0.48544640 [kJ/mol]
    Dispersion sSAPT0              -3.73586072 [mEh]      -2.34428800 [kcal/mol]      -9.80850098 [kJ/mol]
  Total sSAPT0                     -2.76802840 [mEh]      -1.73696404 [kcal/mol]      -7.26745756 [kJ/mol]
  --------------------------------------------------------------------------------------------------------

*** Psi4 exiting successfully. Buy a developer a beer!
