                               Psi4 1.4a2.dev224

  ==> Input File <==

--------------------------------------------------------------------------
#Generated by lconvert.py for sapt job

memory 60 GB

molecule  {
0 1
  C       0.712640    1.121000    0.060540
  H       1.357840    1.986400    0.127740
  C       1.258240   -0.159250    0.124230
  H       2.324950   -0.287100    0.246740
  C       0.426890   -1.274530    0.042650
  H       0.850450   -2.268430    0.094750
  C      -0.949580   -1.110070   -0.100310
  H      -1.594460   -1.976270   -0.163710
  C      -1.495530    0.171050   -0.161550
  H      -2.563780    0.299220   -0.273700
  C      -0.663830    1.286640   -0.083400
  H      -1.086900    2.281000   -0.132890
--
0 1
  C       2.677110    1.103290    5.682340
  H       3.321950    1.969470    5.746090
  C       3.223060   -0.177860    5.743860
  H       4.291270   -0.306010    5.856600
  C       2.391410   -1.293460    5.665210
  H       2.814490   -2.287810    5.714860
  C       1.015010   -1.127830    5.520490
  H       0.369900   -1.993240    5.452860
  C       0.469450    0.152410    5.456530
  H      -0.597180    0.280240    5.333350
  C       1.300720    1.267690    5.538600
  H       0.877200    2.261590    5.486230
units angstrom
no_reorient
symmetry c1
}

set {
scf_type DF
basis aug-cc-pvtz
freeze_core True
guess SAD
}
energy('sapt2+')
--------------------------------------------------------------------------

  //              Dimer HF             //
    Molecular point group: c1
  Charge       = 0
  Multiplicity = 1
  Basis Set: AUG-CC-PVTZ
    Blend: AUG-CC-PVTZ
  Basis Set: (AUG-CC-PVTZ AUX)
    Blend: AUG-CC-PVTZ-JKFIT
  @DF-RHF Final Energy:  -461.56227309709539
    Total Energy =                       -461.5622730970953853
  //            Monomer A HF           //
    Molecular point group: c1
  Multiplicity = 1
  Basis Set: AUG-CC-PVTZ
    Blend: AUG-CC-PVTZ
  Basis Set: (AUG-CC-PVTZ AUX)
    Blend: AUG-CC-PVTZ-JKFIT
  @DF-RHF Final Energy:  -230.78130125777190
    Total Energy =                       -230.7813012577719292
  //            Monomer B HF           //
    Molecular point group: c1

    Geometry (in Angstrom), charge = 0, multiplicity = 1:

       Center              X                  Y                   Z               Mass
    ------------   -----------------  -----------------  -----------------  -----------------
      Gh(C)          -0.151160070581     1.124410129131    -2.730224090070    12.000000000000
      Gh(H)           0.494039929419     1.989810129131    -2.663024090070     1.007825032230
      Gh(C)           0.394439929419    -0.155839870869    -2.666534090070    12.000000000000
      Gh(H)           1.461149929419    -0.283689870869    -2.544024090070     1.007825032230
      Gh(C)          -0.436910070581    -1.271119870869    -2.748114090070    12.000000000000
      Gh(H)          -0.013350070581    -2.265019870869    -2.696014090070     1.007825032230
      Gh(C)          -1.813380070581    -1.106659870869    -2.891074090070    12.000000000000
      Gh(H)          -2.458260070581    -1.972859870869    -2.954474090070     1.007825032230
      Gh(C)          -2.359330070581     0.174460129131    -2.952314090070    12.000000000000
      Gh(H)          -3.427580070581     0.302630129131    -3.064464090070     1.007825032230
      Gh(C)          -1.527630070581     1.290050129131    -2.874164090070    12.000000000000
      Gh(H)          -1.950700070581     2.284410129131    -2.923654090070     1.007825032230
         C            1.813309929419     1.106700129131     2.891575909930    12.000000000000
         H            2.458149929419     1.972880129131     2.955325909930     1.007825032230
         C            2.359259929419    -0.174449870869     2.953095909930    12.000000000000
         H            3.427469929419    -0.302599870869     3.065835909930     1.007825032230
         C            1.527609929419    -1.290049870869     2.874445909930    12.000000000000
         H            1.950689929419    -2.284399870869     2.924095909930     1.007825032230
         C            0.151209929419    -1.124419870869     2.729725909930    12.000000000000
         H           -0.493900070581    -1.989829870869     2.662095909930     1.007825032230
         C           -0.394350070581     0.155820129131     2.665765909930    12.000000000000
         H           -1.460980070581     0.283650129131     2.542585909930     1.007825032230
         C            0.436919929419     1.271100129131     2.747835909930    12.000000000000
         H            0.013399929419     2.265000129131     2.695465909930     1.007825032230

  Charge       = 0
  Multiplicity = 1
  Basis Set: AUG-CC-PVTZ
    Blend: AUG-CC-PVTZ
  Basis Set: (AUG-CC-PVTZ AUX)
    Blend: AUG-CC-PVTZ-JKFIT

    Orbital Energies [Eh]
    ---------------------

    Doubly Occupied:

       1A    -11.236274     2A    -11.235694     3A    -11.235669
       4A    -11.234443     5A    -11.234438     6A    -11.233818
       7A     -1.150530     8A     -1.014996     9A     -1.014795
      10A     -0.824217    11A     -0.824158    12A     -0.709739
      13A     -0.644064    14A     -0.619279    15A     -0.588255
      16A     -0.587987    17A     -0.502493    18A     -0.495044
      19A     -0.494781    20A     -0.336925    21A     -0.336804

  @DF-RHF Final Energy:  -230.78130098729406

   => Energetics <=

    Nuclear Repulsion Energy =            203.7116112813716882
    One-Electron Energy =                -713.8770246775112582
    Two-Electron Energy =                 279.3841124088455103
    Total Energy =                       -230.7813009872940597

  Dipole Moment: [D]
     X:     0.0006      Y:    -0.0001      Z:    -0.0117     Total:     0.0117

    SAPT Results
  --------------------------------------------------------------------------------------------------------
    Electrostatics                  0.27137155 [mEh]       0.17028822 [kcal/mol]       0.71248592 [kJ/mol]
      Elst10,r                      0.35032496 [mEh]       0.21983223 [kcal/mol]       0.91977806 [kJ/mol]
      Elst12,r                     -0.07895341 [mEh]      -0.04954401 [kcal/mol]      -0.20729215 [kJ/mol]

    Exchange                        0.02394482 [mEh]       0.01502560 [kcal/mol]       0.06286711 [kJ/mol]
      Exch10                        0.02333781 [mEh]       0.01464470 [kcal/mol]       0.06127342 [kJ/mol]
      Exch10(S^2)                   0.02333789 [mEh]       0.01464475 [kcal/mol]       0.06127362 [kJ/mol]
      Exch11(S^2)                   0.00093101 [mEh]       0.00058422 [kcal/mol]       0.00244436 [kJ/mol]
      Exch12(S^2)                  -0.00032401 [mEh]      -0.00020332 [kcal/mol]      -0.00085068 [kJ/mol]

    Induction                      -0.04126416 [mEh]      -0.02589365 [kcal/mol]      -0.10833904 [kJ/mol]
      Ind20,r                      -0.05181402 [mEh]      -0.03251379 [kcal/mol]      -0.13603770 [kJ/mol]
      Ind22                         0.00374900 [mEh]       0.00235253 [kcal/mol]       0.00984301 [kJ/mol]
      Exch-Ind20,r                  0.00688771 [mEh]       0.00432210 [kcal/mol]       0.01808367 [kJ/mol]
      Exch-Ind22                   -0.00049836 [mEh]      -0.00031273 [kcal/mol]      -0.00130844 [kJ/mol]
      delta HF,r (2)                0.00041151 [mEh]       0.00025823 [kcal/mol]       0.00108042 [kJ/mol]

    Dispersion                     -0.89311072 [mEh]      -0.56043543 [kcal/mol]      -2.34486186 [kJ/mol]
      Disp20                       -1.07569620 [mEh]      -0.67500956 [kcal/mol]      -2.82423999 [kJ/mol]
      Disp21                        0.39789525 [mEh]       0.24968304 [kcal/mol]       1.04467383 [kJ/mol]
      Disp22 (SDQ)                  0.04100635 [mEh]       0.02573187 [kcal/mol]       0.10766216 [kJ/mol]
      Disp22 (T)                   -0.25586411 [mEh]      -0.16055715 [kcal/mol]      -0.67177113 [kJ/mol]
      Est. Disp22 (T)              -0.26609883 [mEh]      -0.16697954 [kcal/mol]      -0.69864239 [kJ/mol]
      Exch-Disp20                   0.00978272 [mEh]       0.00613875 [kcal/mol]       0.02568453 [kJ/mol]

  Total HF                          0.32914797 [mEh]       0.20654347 [kcal/mol]       0.86417788 [kJ/mol]
  Total SAPT0                      -0.73676551 [mEh]      -0.46232734 [kcal/mol]      -1.93437758 [kJ/mol]
  Total SAPT2                      -0.81186127 [mEh]      -0.50945064 [kcal/mol]      -2.13154147 [kJ/mol]
  Total SAPT2+                     -0.63905851 [mEh]      -0.40101527 [kcal/mol]      -1.67784788 [kJ/mol]

  Special recipe for scaled SAPT0 (see Manual):
    Electrostatics sSAPT0           0.35032496 [mEh]       0.21983223 [kcal/mol]       0.91977806 [kJ/mol]
    Exchange sSAPT0                 0.02333781 [mEh]       0.01464470 [kcal/mol]       0.06127342 [kJ/mol]
    Induction sSAPT0               -0.04451487 [mEh]      -0.02793350 [kcal/mol]      -0.11687378 [kJ/mol]
    Dispersion sSAPT0              -1.06591358 [mEh]      -0.66887087 [kcal/mol]      -2.79855571 [kJ/mol]
  Total sSAPT0                     -0.73676567 [mEh]      -0.46232744 [kcal/mol]      -1.93437801 [kJ/mol]
  --------------------------------------------------------------------------------------------------------

*** Psi4 exiting successfully. Buy a developer a beer!
