                               Psi4 1.4a2.dev224

  ==> Input File <==

--------------------------------------------------------------------------
#Generated by lconvert.py for sapt job

memory 25 GB

molecule  {
0 1
  C       0.712640    1.121000    0.060540
  H       1.357840    1.986400    0.127740
  C       1.258240   -0.159250    0.124230
  H       2.324950   -0.287100    0.246740
  C       0.426890   -1.274530    0.042650
  H       0.850450   -2.268430    0.094750
  C      -0.949580   -1.110070   -0.100310
  H      -1.594460   -1.976270   -0.163710
  C      -1.495530    0.171050   -0.161550
  H      -2.563780    0.299220   -0.273700
  C      -0.663830    1.286640   -0.083400
  H      -1.086900    2.281000   -0.132890
--
0 1
  C       3.041620    1.099870    6.725120
  H       3.686470    1.966050    6.788870
  C       3.587580   -0.181280    6.786640
  H       4.655780   -0.309430    6.899380
  C       2.755930   -1.296880    6.707990
  H       3.179010   -2.291230    6.757640
  C       1.379520   -1.131250    6.563270
  H       0.734420   -1.996660    6.495640
  C       0.833970    0.148990    6.499310
  H      -0.232660    0.276810    6.376130
  C       1.665240    1.264270    6.581380
  H       1.241720    2.258170    6.529010
units angstrom
no_reorient
symmetry c1
}

set {
scf_type DF
basis aug-cc-pvtz
freeze_core True
guess SAD
}
energy('sapt2+')
--------------------------------------------------------------------------

  //              Dimer HF             //
    Molecular point group: c1
  Charge       = 0
  Multiplicity = 1
  Basis Set: AUG-CC-PVTZ
    Blend: AUG-CC-PVTZ
  Basis Set: (AUG-CC-PVTZ AUX)
    Blend: AUG-CC-PVTZ-JKFIT
  @DF-RHF Final Energy:  -461.56241364225957
    Total Energy =                       -461.5624136422595711
  //            Monomer A HF           //
    Molecular point group: c1
  Multiplicity = 1
  Basis Set: AUG-CC-PVTZ
    Blend: AUG-CC-PVTZ
  Basis Set: (AUG-CC-PVTZ AUX)
    Blend: AUG-CC-PVTZ-JKFIT
  @DF-RHF Final Energy:  -230.78128286214226
    Total Energy =                       -230.7812828621422341
  //            Monomer B HF           //
    Molecular point group: c1

    Geometry (in Angstrom), charge = 0, multiplicity = 1:

       Center              X                  Y                   Z               Mass
    ------------   -----------------  -----------------  -----------------  -----------------
      Gh(C)          -0.333418468480     1.126120193696    -3.251614090070    12.000000000000
      Gh(H)           0.311781531520     1.991520193696    -3.184414090070     1.007825032230
      Gh(C)           0.212181531520    -0.154129806304    -3.187924090070    12.000000000000
      Gh(H)           1.278891531520    -0.281979806304    -3.065414090070     1.007825032230
      Gh(C)          -0.619168468480    -1.269409806304    -3.269504090070    12.000000000000
      Gh(H)          -0.195608468480    -2.263309806304    -3.217404090070     1.007825032230
      Gh(C)          -1.995638468480    -1.104949806304    -3.412464090070    12.000000000000
      Gh(H)          -2.640518468480    -1.971149806304    -3.475864090070     1.007825032230
      Gh(C)          -2.541588468480     0.176170193696    -3.473704090070    12.000000000000
      Gh(H)          -3.609838468480     0.304340193696    -3.585854090070     1.007825032230
      Gh(C)          -1.709888468480     1.291760193696    -3.395554090070    12.000000000000
      Gh(H)          -2.132958468480     2.286120193696    -3.445044090070     1.007825032230
         C            1.995561531520     1.104990193696     3.412965909930    12.000000000000
         H            2.640411531520     1.971170193696     3.476715909930     1.007825032230
         C            2.541521531520    -0.176159806304     3.474485909930    12.000000000000
         H            3.609721531520    -0.304309806304     3.587225909930     1.007825032230
         C            1.709871531520    -1.291759806304     3.395835909930    12.000000000000
         H            2.132951531520    -2.286109806304     3.445485909930     1.007825032230
         C            0.333461531520    -1.126129806304     3.251115909930    12.000000000000
         H           -0.311638468480    -1.991539806304     3.183485909930     1.007825032230
         C           -0.212088468480     0.154110193696     3.187155909930    12.000000000000
         H           -1.278718468480     0.281930193696     3.063975909930     1.007825032230
         C            0.619181531520     1.269390193696     3.269225909930    12.000000000000
         H            0.195661531520     2.263290193696     3.216855909930     1.007825032230

  Charge       = 0
  Multiplicity = 1
  Basis Set: AUG-CC-PVTZ
    Blend: AUG-CC-PVTZ
  Basis Set: (AUG-CC-PVTZ AUX)
    Blend: AUG-CC-PVTZ-JKFIT

    Orbital Energies [Eh]
    ---------------------

    Doubly Occupied:

       1A    -11.236281     2A    -11.235701     3A    -11.235676
       4A    -11.234451     5A    -11.234445     6A    -11.233825
       7A     -1.150536     8A     -1.015004     9A     -1.014802
      10A     -0.824224    11A     -0.824165    12A     -0.709747
      13A     -0.644071    14A     -0.619286    15A     -0.588263
      16A     -0.587994    17A     -0.502491    18A     -0.495051
      19A     -0.494787    20A     -0.336931    21A     -0.336810

  @DF-RHF Final Energy:  -230.78128273511822

   => Energetics <=

    Nuclear Repulsion Energy =            203.7116637545062474
    One-Electron Energy =                -713.8768155932772288
    Two-Electron Energy =                 279.3838691036527280
    Total Energy =                       -230.7812827351182250

  Dipole Moment: [D]
     X:     0.0003      Y:    -0.0001      Z:    -0.0119     Total:     0.0119

    SAPT Results
  --------------------------------------------------------------------------------------------------------
    Electrostatics                  0.12839612 [mEh]       0.08056978 [kcal/mol]       0.33710396 [kJ/mol]
      Elst10,r                      0.16387284 [mEh]       0.10283176 [kcal/mol]       0.43024807 [kJ/mol]
      Elst12,r                     -0.03547672 [mEh]      -0.02226198 [kcal/mol]      -0.09314411 [kJ/mol]

    Exchange                        0.00084850 [mEh]       0.00053244 [kcal/mol]       0.00222774 [kJ/mol]
      Exch10                        0.00082168 [mEh]       0.00051561 [kcal/mol]       0.00215732 [kJ/mol]
      Exch10(S^2)                   0.00082168 [mEh]       0.00051561 [kcal/mol]       0.00215732 [kJ/mol]
      Exch11(S^2)                   0.00001465 [mEh]       0.00000920 [kcal/mol]       0.00003848 [kJ/mol]
      Exch12(S^2)                   0.00001217 [mEh]       0.00000763 [kcal/mol]       0.00003194 [kJ/mol]

    Induction                      -0.01182940 [mEh]      -0.00742306 [kcal/mol]      -0.03105809 [kJ/mol]
      Ind20,r                      -0.01382429 [mEh]      -0.00867487 [kcal/mol]      -0.03629566 [kJ/mol]
      Ind22                         0.00092941 [mEh]       0.00058321 [kcal/mol]       0.00244017 [kJ/mol]
      Exch-Ind20,r                  0.00028700 [mEh]       0.00018009 [kcal/mol]       0.00075351 [kJ/mol]
      Exch-Ind22                   -0.00001929 [mEh]      -0.00001211 [kcal/mol]      -0.00005066 [kJ/mol]
      delta HF,r (2)                0.00079777 [mEh]       0.00050061 [kcal/mol]       0.00209456 [kJ/mol]

    Dispersion                     -0.30961530 [mEh]      -0.19428653 [kcal/mol]      -0.81289486 [kJ/mol]
      Disp20                       -0.37385888 [mEh]      -0.23459999 [kcal/mol]      -0.98156635 [kJ/mol]
      Disp21                        0.14636700 [mEh]       0.09184668 [kcal/mol]       0.38428651 [kJ/mol]
      Disp22 (SDQ)                  0.01052806 [mEh]       0.00660646 [kcal/mol]       0.02764141 [kJ/mol]
      Disp22 (T)                   -0.09118297 [mEh]      -0.05721818 [kcal/mol]      -0.23940086 [kJ/mol]
      Est. Disp22 (T)              -0.09315670 [mEh]      -0.05845671 [kcal/mol]      -0.24458288 [kJ/mol]
      Exch-Disp20                   0.00050522 [mEh]       0.00031703 [kcal/mol]       0.00132646 [kJ/mol]

  Total HF                          0.15195500 [mEh]       0.09535320 [kcal/mol]       0.39895780 [kJ/mol]
  Total SAPT0                      -0.22139866 [mEh]      -0.13892975 [kcal/mol]      -0.58128209 [kJ/mol]
  Total SAPT2                      -0.25593844 [mEh]      -0.16060380 [kcal/mol]      -0.67196628 [kJ/mol]
  Total SAPT2+                     -0.19220008 [mEh]      -0.12060737 [kcal/mol]      -0.50462125 [kJ/mol]

  Special recipe for scaled SAPT0 (see Manual):
    Electrostatics sSAPT0           0.16387284 [mEh]       0.10283176 [kcal/mol]       0.43024807 [kJ/mol]
    Exchange sSAPT0                 0.00082168 [mEh]       0.00051561 [kcal/mol]       0.00215732 [kJ/mol]
    Induction sSAPT0               -0.01273952 [mEh]      -0.00799417 [kcal/mol]      -0.03344759 [kJ/mol]
    Dispersion sSAPT0              -0.37335366 [mEh]      -0.23428296 [kcal/mol]      -0.98023989 [kJ/mol]
  Total sSAPT0                     -0.22139866 [mEh]      -0.13892975 [kcal/mol]      -0.58128209 [kJ/mol]
  --------------------------------------------------------------------------------------------------------

*** Psi4 exiting successfully. Buy a developer a beer!
