                               Psi4 1.4a2.dev224

  ==> Input File <==

--------------------------------------------------------------------------
#Generated by lconvert.py for sapt job

memory 50 GB

molecule  {
0 1
  N       1.572480    0.254550   -0.256480
  C       0.969360   -0.903160    0.044530
  H       1.613640   -1.772180    0.102350
  C      -0.398160   -1.028820    0.280960
  H      -0.818420   -1.991740    0.533560
  C      -1.195810    0.106560    0.195400
  H      -2.260690    0.049540    0.373440
  C      -0.587130    1.317410   -0.120110
  H      -1.161810    2.229500   -0.200460
  C       0.788550    1.339710   -0.332240
  H       1.288430    2.268790   -0.578530
--
0 1
  N      -0.748530   -1.698130    5.719130
  C      -1.681010   -0.737500    5.792980
  H      -2.683790   -1.068460    6.035170
  C      -1.419000    0.613570    5.583600
  H      -2.217560    1.338070    5.661870
  C      -0.119580    1.002810    5.273330
  H       0.122410    2.041810    5.097460
  C       0.859980    0.019910    5.189970
  H       1.882290    0.266660    4.941530
  C       0.497500   -1.305230    5.423160
  H       1.241370   -2.090780    5.366710
units angstrom
no_reorient
symmetry c1
}

set {
scf_type DF
basis aug-cc-pvtz
freeze_core True
guess SAD
}
energy('sapt2+')
--------------------------------------------------------------------------

  //              Dimer HF             //
    Molecular point group: c1
  Charge       = 0
  Multiplicity = 1
  Basis Set: AUG-CC-PVTZ
    Blend: AUG-CC-PVTZ
  Basis Set: (AUG-CC-PVTZ AUX)
    Blend: AUG-CC-PVTZ-JKFIT
  @DF-RHF Final Energy:  -493.55759597514873
    Total Energy =                       -493.5575959751487289
  //            Monomer A HF           //
    Molecular point group: c1
  Multiplicity = 1
  Basis Set: AUG-CC-PVTZ
    Blend: AUG-CC-PVTZ
  Basis Set: (AUG-CC-PVTZ AUX)
    Blend: AUG-CC-PVTZ-JKFIT
  @DF-RHF Final Energy:  -246.77868118244859
    Total Energy =                       -246.7786811824486222
  //            Monomer B HF           //
    Molecular point group: c1

    Geometry (in Angstrom), charge = 0, multiplicity = 1:

       Center              X                  Y                   Z               Mass
    ------------   -----------------  -----------------  -----------------  -----------------
      Gh(N)           1.692057431659     0.342036687226    -2.989322957050    14.003074004430
      Gh(C)           1.088937431659    -0.815673312774    -2.688312957050    12.000000000000
      Gh(H)           1.733217431659    -1.684693312774    -2.630492957050     1.007825032230
      Gh(C)          -0.278582568341    -0.941333312774    -2.451882957050    12.000000000000
      Gh(H)          -0.698842568341    -1.904253312774    -2.199282957050     1.007825032230
      Gh(C)          -1.076232568341     0.194046687226    -2.537442957050    12.000000000000
      Gh(H)          -2.141112568341     0.137026687226    -2.359402957050     1.007825032230
      Gh(C)          -0.467552568341     1.404896687226    -2.852952957050    12.000000000000
      Gh(H)          -1.042232568341     2.316986687226    -2.933302957050     1.007825032230
      Gh(C)           0.908127431659     1.427196687226    -3.065082957050    12.000000000000
      Gh(H)           1.408007431659     2.356276687226    -3.311372957050     1.007825032230
         N           -0.628952568341    -1.610643312774     2.986287042950    14.003074004430
         C           -1.561432568341    -0.650013312774     3.060137042950    12.000000000000
         H           -2.564212568341    -0.980973312774     3.302327042950     1.007825032230
         C           -1.299422568341     0.701056687226     2.850757042950    12.000000000000
         H           -2.097982568341     1.425556687226     2.929027042950     1.007825032230
         C           -0.000002568341     1.090296687226     2.540487042950    12.000000000000
         H            0.241987431659     2.129296687226     2.364617042950     1.007825032230
         C            0.979557431659     0.107396687226     2.457127042950    12.000000000000
         H            2.001867431659     0.354146687226     2.208687042950     1.007825032230
         C            0.617077431659    -1.217743312774     2.690317042950    12.000000000000
         H            1.360947431659    -2.003293312774     2.633867042950     1.007825032230

  Charge       = 0
  Multiplicity = 1
  Basis Set: AUG-CC-PVTZ
    Blend: AUG-CC-PVTZ
  Basis Set: (AUG-CC-PVTZ AUX)
    Blend: AUG-CC-PVTZ-JKFIT

    Orbital Energies [Eh]
    ---------------------

    Doubly Occupied:

       1A    -15.567571     2A    -11.275581     3A    -11.275507
       4A    -11.260746     5A    -11.242639     6A    -11.242583
       7A     -1.257085     8A     -1.090473     9A     -1.033910
      10A     -0.859864    11A     -0.856210    12A     -0.722306
      13A     -0.660955    14A     -0.654660    15A     -0.598476
      16A     -0.577714    17A     -0.541553    18A     -0.520253
      19A     -0.420215    20A     -0.384480    21A     -0.348096

  @DF-RHF Final Energy:  -246.77868397170596

   => Energetics <=

    Nuclear Repulsion Energy =            206.2274625537383486
    One-Electron Energy =                -741.2305399637887149
    Two-Electron Energy =                 288.2243934383443502
    Total Energy =                       -246.7786839717059593

  Dipole Moment: [D]
     X:     0.5231      Y:     2.2437      Z:    -0.3791     Total:     2.3348

    SAPT Results
  --------------------------------------------------------------------------------------------------------
    Electrostatics                 -0.27497133 [mEh]      -0.17254711 [kcal/mol]      -0.72193712 [kJ/mol]
      Elst10,r                     -0.22466489 [mEh]      -0.14097934 [kcal/mol]      -0.58985758 [kJ/mol]
      Elst12,r                     -0.05030644 [mEh]      -0.03156777 [kcal/mol]      -0.13207954 [kJ/mol]

    Exchange                        0.04349303 [mEh]       0.02729229 [kcal/mol]       0.11419093 [kJ/mol]
      Exch10                        0.04332000 [mEh]       0.02718371 [kcal/mol]       0.11373663 [kJ/mol]
      Exch10(S^2)                   0.04331973 [mEh]       0.02718354 [kcal/mol]       0.11373592 [kJ/mol]
      Exch11(S^2)                   0.00168512 [mEh]       0.00105743 [kcal/mol]       0.00442427 [kJ/mol]
      Exch12(S^2)                  -0.00151208 [mEh]      -0.00094885 [kcal/mol]      -0.00396998 [kJ/mol]

    Induction                      -0.04571938 [mEh]      -0.02868934 [kcal/mol]      -0.12003622 [kJ/mol]
      Ind20,r                      -0.05923858 [mEh]      -0.03717277 [kcal/mol]      -0.15553087 [kJ/mol]
      Ind22                         0.00482283 [mEh]       0.00302637 [kcal/mol]       0.01266233 [kJ/mol]
      Exch-Ind20,r                  0.01309490 [mEh]       0.00821717 [kcal/mol]       0.03438065 [kJ/mol]
      Exch-Ind22                   -0.00106610 [mEh]      -0.00066899 [kcal/mol]      -0.00279905 [kJ/mol]
      delta HF,r (2)               -0.00333242 [mEh]      -0.00209113 [kcal/mol]      -0.00874928 [kJ/mol]

    Dispersion                     -1.12159576 [mEh]      -0.70381197 [kcal/mol]      -2.94474927 [kJ/mol]
      Disp20                       -1.33565828 [mEh]      -0.83813822 [kcal/mol]      -3.50677032 [kJ/mol]
      Disp21                        0.49788312 [mEh]       0.31242637 [kcal/mol]       1.30719194 [kJ/mol]
      Disp22 (SDQ)                  0.03540681 [mEh]       0.02221811 [kcal/mol]       0.09296056 [kJ/mol]
      Disp22 (T)                   -0.32151779 [mEh]      -0.20175546 [kcal/mol]      -0.84414484 [kJ/mol]
      Est. Disp22 (T)              -0.33450947 [mEh]      -0.20990786 [kcal/mol]      -0.87825449 [kJ/mol]
      Exch-Disp20                   0.01528206 [mEh]       0.00958964 [kcal/mol]       0.04012305 [kJ/mol]

  Total HF                         -0.23082099 [mEh]      -0.14484236 [kcal/mol]      -0.60602044 [kJ/mol]
  Total SAPT0                      -1.55119721 [mEh]      -0.97339094 [kcal/mol]      -4.07266771 [kJ/mol]
  Total SAPT2                      -1.59757389 [mEh]      -1.00249275 [kcal/mol]      -4.19442968 [kJ/mol]
  Total SAPT2+                     -1.39879344 [mEh]      -0.87775613 [kcal/mol]      -3.67253167 [kJ/mol]

  Special recipe for scaled SAPT0 (see Manual):
    Electrostatics sSAPT0          -0.22466489 [mEh]      -0.14097934 [kcal/mol]      -0.58985758 [kJ/mol]
    Exchange sSAPT0                 0.04332000 [mEh]       0.02718371 [kcal/mol]       0.11373663 [kJ/mol]
    Induction sSAPT0               -0.04947586 [mEh]      -0.03104657 [kcal/mol]      -0.12989885 [kJ/mol]
    Dispersion sSAPT0              -1.32037593 [mEh]      -0.82854840 [kcal/mol]      -3.46664652 [kJ/mol]
  Total sSAPT0                     -1.55119668 [mEh]      -0.97339061 [kcal/mol]      -4.07266631 [kJ/mol]
  --------------------------------------------------------------------------------------------------------

*** Psi4 exiting successfully. Buy a developer a beer!
