                               Psi4 1.4a2.dev224

  ==> Input File <==

--------------------------------------------------------------------------
#Generated by lconvert.py for sapt job

memory 50 GB

molecule  {
0 1
  N       1.572480    0.254550   -0.256480
  C       0.969360   -0.903160    0.044530
  H       1.613640   -1.772180    0.102350
  C      -0.398160   -1.028820    0.280960
  H      -0.818420   -1.991740    0.533560
  C      -1.195810    0.106560    0.195400
  H      -2.260690    0.049540    0.373440
  C      -0.587130    1.317410   -0.120110
  H      -1.161810    2.229500   -0.200460
  C       0.788550    1.339710   -0.332240
  H       1.288430    2.268790   -0.578530
--
0 1
  N      -0.860440   -1.793090    6.695990
  C      -1.792920   -0.832460    6.769840
  H      -2.795710   -1.163420    7.012030
  C      -1.530910    0.518600    6.560460
  H      -2.329470    1.243110    6.638730
  C      -0.231490    0.907850    6.250190
  H       0.010500    1.946840    6.074320
  C       0.748070   -0.075050    6.166830
  H       1.770370    0.171690    5.918390
  C       0.385590   -1.400190    6.400020
  H       1.129450   -2.185740    6.343570
units angstrom
no_reorient
symmetry c1
}

set {
scf_type DF
basis aug-cc-pvtz
freeze_core True
guess SAD
}
energy('sapt2+')
--------------------------------------------------------------------------

  //              Dimer HF             //
    Molecular point group: c1
  Charge       = 0
  Multiplicity = 1
  Basis Set: AUG-CC-PVTZ
    Blend: AUG-CC-PVTZ
  Basis Set: (AUG-CC-PVTZ AUX)
    Blend: AUG-CC-PVTZ-JKFIT
  @DF-RHF Final Energy:  -493.55751433749799
    Total Energy =                       -493.5575143374979916
  //            Monomer A HF           //
    Molecular point group: c1
  Multiplicity = 1
  Basis Set: AUG-CC-PVTZ
    Blend: AUG-CC-PVTZ
  Basis Set: (AUG-CC-PVTZ AUX)
    Blend: AUG-CC-PVTZ-JKFIT
  @DF-RHF Final Energy:  -246.77866091158540
    Total Energy =                       -246.7786609115854048
  //            Monomer B HF           //
    Molecular point group: c1

    Geometry (in Angstrom), charge = 0, multiplicity = 1:

       Center              X                  Y                   Z               Mass
    ------------   -----------------  -----------------  -----------------  -----------------
      Gh(N)           1.748012622916     0.389517573819    -3.477752957050    14.003074004430
      Gh(C)           1.144892622916    -0.768192426181    -3.176742957050    12.000000000000
      Gh(H)           1.789172622916    -1.637212426181    -3.118922957050     1.007825032230
      Gh(C)          -0.222627377084    -0.893852426181    -2.940312957050    12.000000000000
      Gh(H)          -0.642887377084    -1.856772426181    -2.687712957050     1.007825032230
      Gh(C)          -1.020277377084     0.241527573819    -3.025872957050    12.000000000000
      Gh(H)          -2.085157377084     0.184507573819    -2.847832957050     1.007825032230
      Gh(C)          -0.411597377084     1.452377573819    -3.341382957050    12.000000000000
      Gh(H)          -0.986277377084     2.364467573819    -3.421732957050     1.007825032230
      Gh(C)           0.964082622916     1.474677573819    -3.553512957050    12.000000000000
      Gh(H)           1.463962622916     2.403757573819    -3.799802957050     1.007825032230
         N           -0.684907377084    -1.658122426181     3.474717042950    14.003074004430
         C           -1.617387377084    -0.697492426181     3.548567042950    12.000000000000
         H           -2.620177377084    -1.028452426181     3.790757042950     1.007825032230
         C           -1.355377377084     0.653567573819     3.339187042950    12.000000000000
         H           -2.153937377084     1.378077573819     3.417457042950     1.007825032230
         C           -0.055957377084     1.042817573819     3.028917042950    12.000000000000
         H            0.186032622916     2.081807573819     2.853047042950     1.007825032230
         C            0.923602622916     0.059917573819     2.945557042950    12.000000000000
         H            1.945902622916     0.306657573819     2.697117042950     1.007825032230
         C            0.561122622916    -1.265222426181     3.178747042950    12.000000000000
         H            1.304982622916    -2.050772426181     3.122297042950     1.007825032230

  Charge       = 0
  Multiplicity = 1
  Basis Set: AUG-CC-PVTZ
    Blend: AUG-CC-PVTZ
  Basis Set: (AUG-CC-PVTZ AUX)
    Blend: AUG-CC-PVTZ-JKFIT

    Orbital Energies [Eh]
    ---------------------

    Doubly Occupied:

       1A    -15.567576     2A    -11.275585     3A    -11.275510
       4A    -11.260751     5A    -11.242644     6A    -11.242589
       7A     -1.257089     8A     -1.090478     9A     -1.033916
      10A     -0.859871    11A     -0.856214    12A     -0.722313
      13A     -0.660961    14A     -0.654665    15A     -0.598482
      16A     -0.577722    17A     -0.541553    18A     -0.520256
      19A     -0.420219    20A     -0.384483    21A     -0.348100

  @DF-RHF Final Energy:  -246.77866389460482

   => Energetics <=

    Nuclear Repulsion Energy =            206.2276689406808998
    One-Electron Energy =                -741.2307084723735215
    Two-Electron Energy =                 288.2243756370877463
    Total Energy =                       -246.7786638946048470

  Dipole Moment: [D]
     X:     0.5233      Y:     2.2438      Z:    -0.3793     Total:     2.3351

    SAPT Results
  --------------------------------------------------------------------------------------------------------
    Electrostatics                 -0.19196233 [mEh]      -0.12045818 [kcal/mol]      -0.50399703 [kJ/mol]
      Elst10,r                     -0.17374739 [mEh]      -0.10902813 [kcal/mol]      -0.45617371 [kJ/mol]
      Elst12,r                     -0.01821494 [mEh]      -0.01143005 [kcal/mol]      -0.04782331 [kJ/mol]

    Exchange                        0.00214264 [mEh]       0.00134453 [kcal/mol]       0.00562550 [kJ/mol]
      Exch10                        0.00212874 [mEh]       0.00133581 [kcal/mol]       0.00558901 [kJ/mol]
      Exch10(S^2)                   0.00212874 [mEh]       0.00133581 [kcal/mol]       0.00558901 [kJ/mol]
      Exch11(S^2)                   0.00005413 [mEh]       0.00003397 [kcal/mol]       0.00014211 [kJ/mol]
      Exch12(S^2)                  -0.00004023 [mEh]      -0.00002524 [kcal/mol]      -0.00010562 [kJ/mol]

    Induction                      -0.01666428 [mEh]      -0.01045699 [kcal/mol]      -0.04375205 [kJ/mol]
      Ind20,r                      -0.01815210 [mEh]      -0.01139061 [kcal/mol]      -0.04765833 [kJ/mol]
      Ind22                         0.00129298 [mEh]       0.00081136 [kcal/mol]       0.00339473 [kJ/mol]
      Exch-Ind20,r                  0.00062615 [mEh]       0.00039292 [kcal/mol]       0.00164396 [kJ/mol]
      Exch-Ind22                   -0.00004460 [mEh]      -0.00002799 [kcal/mol]      -0.00011710 [kJ/mol]
      delta HF,r (2)               -0.00038671 [mEh]      -0.00024266 [kcal/mol]      -0.00101531 [kJ/mol]

    Dispersion                     -0.41101026 [mEh]      -0.25791283 [kcal/mol]      -1.07910730 [kJ/mol]
      Disp20                       -0.48898124 [mEh]      -0.30684036 [kcal/mol]      -1.28382007 [kJ/mol]
      Disp21                        0.19309684 [mEh]       0.12117010 [kcal/mol]       0.50697569 [kJ/mol]
      Disp22 (SDQ)                  0.00723015 [mEh]       0.00453699 [kcal/mol]       0.01898276 [kJ/mol]
      Disp22 (T)                   -0.12077220 [mEh]      -0.07578570 [kcal/mol]      -0.31708736 [kJ/mol]
      Est. Disp22 (T)              -0.12335959 [mEh]      -0.07740931 [kcal/mol]      -0.32388056 [kJ/mol]
      Exch-Disp20                   0.00100357 [mEh]       0.00062975 [kcal/mol]       0.00263489 [kJ/mol]

  Total HF                         -0.18953131 [mEh]      -0.11893269 [kcal/mol]      -0.49761438 [kJ/mol]
  Total SAPT0                      -0.67750897 [mEh]      -0.42514330 [kcal/mol]      -1.77879956 [kJ/mol]
  Total SAPT2                      -0.69446163 [mEh]      -0.43578125 [kcal/mol]      -1.82330876 [kJ/mol]
  Total SAPT2+                     -0.61749423 [mEh]      -0.38748348 [kcal/mol]      -1.62123087 [kJ/mol]

  Special recipe for scaled SAPT0 (see Manual):
    Electrostatics sSAPT0          -0.17374739 [mEh]      -0.10902813 [kcal/mol]      -0.45617371 [kJ/mol]
    Exchange sSAPT0                 0.00212874 [mEh]       0.00133581 [kcal/mol]       0.00558901 [kJ/mol]
    Induction sSAPT0               -0.01791266 [mEh]      -0.01124036 [kcal/mol]      -0.04702968 [kJ/mol]
    Dispersion sSAPT0              -0.48797766 [mEh]      -0.30621061 [kcal/mol]      -1.28118518 [kJ/mol]
  Total sSAPT0                     -0.67750897 [mEh]      -0.42514330 [kcal/mol]      -1.77879956 [kJ/mol]
  --------------------------------------------------------------------------------------------------------

*** Psi4 exiting successfully. Buy a developer a beer!
