                               Psi4 1.4a2.dev224

  ==> Input File <==

--------------------------------------------------------------------------
#Generated by lconvert.py for sapt job

memory 50 GB

molecule  {
0 1
  N       1.572480    0.254550   -0.256480
  C       0.969360   -0.903160    0.044530
  H       1.613640   -1.772180    0.102350
  C      -0.398160   -1.028820    0.280960
  H      -0.818420   -1.991740    0.533560
  C      -1.195810    0.106560    0.195400
  H      -2.260690    0.049540    0.373440
  C      -0.587130    1.317410   -0.120110
  H      -1.161810    2.229500   -0.200460
  C       0.788550    1.339710   -0.332240
  H       1.288430    2.268790   -0.578530
--
0 1
  N      -0.636620   -1.603170    4.742270
  C      -1.569090   -0.642540    4.816120
  H      -2.571880   -0.973490    5.058310
  C      -1.307090    0.708530    4.606740
  H      -2.105650    1.433030    4.685010
  C      -0.007660    1.097770    4.296470
  H       0.234320    2.136770    4.120600
  C       0.971900    0.114870    4.213110
  H       1.994200    0.361620    3.964670
  C       0.609420   -1.210270    4.446300
  H       1.353280   -1.995820    4.389850
units angstrom
no_reorient
symmetry c1
}

set {
scf_type DF
basis aug-cc-pvtz
freeze_core True
guess SAD
}
energy('sapt2+')
--------------------------------------------------------------------------

  //              Dimer HF             //
    Molecular point group: c1
  Charge       = 0
  Multiplicity = 1
  Basis Set: AUG-CC-PVTZ
    Blend: AUG-CC-PVTZ
  Basis Set: (AUG-CC-PVTZ AUX)
    Blend: AUG-CC-PVTZ-JKFIT
  @DF-RHF Final Energy:  -493.55743167581977
    Total Energy =                       -493.5574316758197710
  //            Monomer A HF           //
    Molecular point group: c1
  Multiplicity = 1
  Basis Set: AUG-CC-PVTZ
    Blend: AUG-CC-PVTZ
  Basis Set: (AUG-CC-PVTZ AUX)
    Blend: AUG-CC-PVTZ-JKFIT
  @DF-RHF Final Energy:  -246.77874201406624
    Total Energy =                       -246.7787420140662107
  //            Monomer B HF           //
    Molecular point group: c1

    Geometry (in Angstrom), charge = 0, multiplicity = 1:

       Center              X                  Y                   Z               Mass
    ------------   -----------------  -----------------  -----------------  -----------------
      Gh(N)           1.636099395306     0.294556623474    -2.500892957050    14.003074004430
      Gh(C)           1.032979395306    -0.863153376526    -2.199882957050    12.000000000000
      Gh(H)           1.677259395306    -1.732173376526    -2.142062957050     1.007825032230
      Gh(C)          -0.334540604694    -0.988813376526    -1.963452957050    12.000000000000
      Gh(H)          -0.754800604694    -1.951733376526    -1.710852957050     1.007825032230
      Gh(C)          -1.132190604694     0.146566623474    -2.049012957050    12.000000000000
      Gh(H)          -2.197070604694     0.089546623474    -1.870972957050     1.007825032230
      Gh(C)          -0.523510604694     1.357416623474    -2.364522957050    12.000000000000
      Gh(H)          -1.098190604694     2.269506623474    -2.444872957050     1.007825032230
      Gh(C)           0.852169395306     1.379716623474    -2.576652957050    12.000000000000
      Gh(H)           1.352049395306     2.308796623474    -2.822942957050     1.007825032230
         N           -0.573000604694    -1.563163376526     2.497857042950    14.003074004430
         C           -1.505470604694    -0.602533376526     2.571707042950    12.000000000000
         H           -2.508260604694    -0.933483376526     2.813897042950     1.007825032230
         C           -1.243470604694     0.748536623474     2.362327042950    12.000000000000
         H           -2.042030604694     1.473036623474     2.440597042950     1.007825032230
         C            0.055959395306     1.137776623474     2.052057042950    12.000000000000
         H            0.297939395306     2.176776623474     1.876187042950     1.007825032230
         C            1.035519395306     0.154876623474     1.968697042950    12.000000000000
         H            2.057819395306     0.401626623474     1.720257042950     1.007825032230
         C            0.673039395306    -1.170263376526     2.201887042950    12.000000000000
         H            1.416899395306    -1.955813376526     2.145437042950     1.007825032230

  Charge       = 0
  Multiplicity = 1
  Basis Set: AUG-CC-PVTZ
    Blend: AUG-CC-PVTZ
  Basis Set: (AUG-CC-PVTZ AUX)
    Blend: AUG-CC-PVTZ-JKFIT

    Orbital Energies [Eh]
    ---------------------

    Doubly Occupied:

       1A    -15.567552     2A    -11.275563     3A    -11.275489
       4A    -11.260727     5A    -11.242618     6A    -11.242561
       7A     -1.257066     8A     -1.090452     9A     -1.033892
      10A     -0.859844    11A     -0.856190    12A     -0.722286
      13A     -0.660936    14A     -0.654642    15A     -0.598458
      16A     -0.577693    17A     -0.541548    18A     -0.520233
      19A     -0.420202    20A     -0.384468    21A     -0.348089

  @DF-RHF Final Energy:  -246.77874465246174

   => Energetics <=

    Nuclear Repulsion Energy =            206.2273146509250807
    One-Electron Energy =                -741.2311050787450313
    Two-Electron Energy =                 288.2250457753581827
    Total Energy =                       -246.7787446524617394

  Dipole Moment: [D]
     X:     0.5230      Y:     2.2435      Z:    -0.3786     Total:     2.3345

    SAPT Results
  --------------------------------------------------------------------------------------------------------
    Electrostatics                 -0.66886170 [mEh]      -0.41971705 [kcal/mol]      -1.75609616 [kJ/mol]
      Elst10,r                     -0.57395708 [mEh]      -0.36016351 [kcal/mol]      -1.50692411 [kJ/mol]
      Elst12,r                     -0.09490462 [mEh]      -0.05955355 [kcal/mol]      -0.24917204 [kJ/mol]

    Exchange                        0.82079054 [mEh]       0.51505384 [kcal/mol]       2.15498525 [kJ/mol]
      Exch10                        0.82463703 [mEh]       0.51746755 [kcal/mol]       2.16508422 [kJ/mol]
      Exch10(S^2)                   0.82449542 [mEh]       0.51737868 [kcal/mol]       2.16471242 [kJ/mol]
      Exch11(S^2)                   0.04271221 [mEh]       0.02680232 [kcal/mol]       0.11214089 [kJ/mol]
      Exch12(S^2)                  -0.04655870 [mEh]      -0.02921603 [kcal/mol]      -0.12223986 [kJ/mol]

    Induction                      -0.18481226 [mEh]      -0.11597145 [kcal/mol]      -0.48522453 [kJ/mol]
      Ind20,r                      -0.42398250 [mEh]      -0.26605304 [kcal/mol]      -1.11316591 [kJ/mol]
      Ind22                         0.03542569 [mEh]       0.02222995 [kcal/mol]       0.09301013 [kJ/mol]
      Exch-Ind20,r                  0.29380447 [mEh]       0.18436509 [kcal/mol]       0.77138352 [kJ/mol]
      Exch-Ind22                   -0.02454871 [mEh]      -0.01540455 [kcal/mol]      -0.06445264 [kJ/mol]
      delta HF,r (2)               -0.06551120 [mEh]      -0.04110890 [kcal/mol]      -0.17199963 [kJ/mol]

    Dispersion                     -3.65440191 [mEh]      -2.29317182 [kcal/mol]      -9.59463089 [kJ/mol]
      Disp20                       -4.47532379 [mEh]      -2.80830808 [kcal/mol]     -11.74996100 [kJ/mol]
      Disp21                        1.52780737 [mEh]       0.95871360 [kcal/mol]       4.01125770 [kJ/mol]
      Disp22 (SDQ)                  0.18125762 [mEh]       0.11374087 [kcal/mol]       0.47589181 [kJ/mol]
      Disp22 (T)                   -1.03392504 [mEh]      -0.64879776 [kcal/mol]      -2.71456982 [kJ/mol]
      Est. Disp22 (T)              -1.10107592 [mEh]      -0.69093557 [kcal/mol]      -2.89087443 [kJ/mol]
      Exch-Disp20                   0.21293282 [mEh]       0.13361736 [kcal/mol]       0.55905504 [kJ/mol]

  Total HF                          0.05499071 [mEh]       0.03450719 [kcal/mol]       0.14437808 [kJ/mol]
  Total SAPT0                      -4.20740027 [mEh]      -2.64018353 [kcal/mol]     -11.04652788 [kJ/mol]
  Total SAPT2                      -4.29527441 [mEh]      -2.69532538 [kcal/mol]     -11.27724140 [kJ/mol]
  Total SAPT2+                     -3.68728534 [mEh]      -2.31380648 [kcal/mol]      -9.68096632 [kJ/mol]

  Special recipe for scaled SAPT0 (see Manual):
    Electrostatics sSAPT0          -0.57395708 [mEh]      -0.36016351 [kcal/mol]      -1.50692411 [kJ/mol]
    Exchange sSAPT0                 0.82463703 [mEh]       0.51746755 [kcal/mol]       2.16508422 [kJ/mol]
    Induction sSAPT0               -0.19553782 [mEh]      -0.12270184 [kcal/mol]      -0.51338448 [kJ/mol]
    Dispersion sSAPT0              -4.26228124 [mEh]      -2.67462186 [kcal/mol]     -11.19061786 [kJ/mol]
  Total sSAPT0                     -4.20713912 [mEh]      -2.64001966 [kcal/mol]     -11.04584224 [kJ/mol]
  --------------------------------------------------------------------------------------------------------

*** Psi4 exiting successfully. Buy a developer a beer!
