                               Psi4 1.4a2.dev224

  ==> Input File <==

--------------------------------------------------------------------------
#Generated by lconvert.py for sapt job

memory 50 GB

molecule  {
0 1
  N       1.376900    0.839750    0.734620
  H       1.051810    1.386220    1.523360
  C       1.308980    1.457530   -0.520650
  O       0.920560    2.611080   -0.625980
  N       2.011420   -1.213210   -0.098070
  H       1.727290    0.990840   -2.612000
  C       2.025740   -0.697170   -1.364400
  H       2.297520   -1.391060   -2.145650
  C       1.714510    0.591940   -1.612490
  H       2.129450   -2.201520    0.056830
  C       1.645940   -0.485210    1.018720
  O       1.561120   -0.971820    2.129810
--
0 1
  N      -3.893380   -1.274210    0.734620
  H      -3.568290   -1.820680    1.523360
  C      -3.825460   -1.891990   -0.520650
  O      -3.437040   -3.045540   -0.625980
  N      -4.527900    0.778750   -0.098070
  H      -4.243760   -1.425300   -2.612000
  C      -4.542210    0.262710   -1.364400
  H      -4.814000    0.956600   -2.145650
  C      -4.230990   -1.026400   -1.612490
  H      -4.645930    1.767060    0.056830
  C      -4.162420    0.050750    1.018720
  O      -4.077590    0.537360    2.129810
units angstrom
no_reorient
symmetry c1
}

set {
scf_type DF
basis aug-cc-pvtz
freeze_core True
guess SAD
}
energy('sapt2+')
--------------------------------------------------------------------------

  //              Dimer HF             //
    Molecular point group: c1
  Charge       = 0
  Multiplicity = 1
  Basis Set: AUG-CC-PVTZ
    Blend: AUG-CC-PVTZ
  Basis Set: (AUG-CC-PVTZ AUX)
    Blend: AUG-CC-PVTZ-JKFIT
  @DF-RHF Final Energy:  -825.24899020693601
    Total Energy =                       -825.2489902069360141
  //            Monomer A HF           //
    Molecular point group: c1
  Multiplicity = 1
  Basis Set: AUG-CC-PVTZ
    Blend: AUG-CC-PVTZ
  Basis Set: (AUG-CC-PVTZ AUX)
    Blend: AUG-CC-PVTZ-JKFIT
  @DF-RHF Final Energy:  -412.62378240726281
    Total Energy =                       -412.6237824072628086
  //            Monomer B HF           //
    Molecular point group: c1

    Geometry (in Angstrom), charge = 0, multiplicity = 1:

       Center              X                  Y                   Z               Mass
    ------------   -----------------  -----------------  -----------------  -----------------
      Gh(N)           2.635138705550     1.056980000000     0.734449278338    14.003074004430
      Gh(H)           2.310048705550     1.603450000000     1.523189278338     1.007825032230
      Gh(C)           2.567218705550     1.674760000000    -0.520820721662    12.000000000000
      Gh(O)           2.178798705550     2.828310000000    -0.626150721662    15.994914619570
      Gh(N)           3.269658705550    -0.995980000000    -0.098240721662    14.003074004430
      Gh(H)           2.985528705550     1.208070000000    -2.612170721662     1.007825032230
      Gh(C)           3.283978705550    -0.479940000000    -1.364570721662    12.000000000000
      Gh(H)           3.555758705550    -1.173830000000    -2.145820721662     1.007825032230
      Gh(C)           2.972748705550     0.809170000000    -1.612660721662    12.000000000000
      Gh(H)           3.387688705550    -1.984290000000     0.056659278338     1.007825032230
      Gh(C)           2.904178705550    -0.267980000000     1.018549278338    12.000000000000
      Gh(O)           2.819358705550    -0.754590000000     2.129639278338    15.994914619570
         N           -2.635141294450    -1.056980000000     0.734449278338    14.003074004430
         H           -2.310051294450    -1.603450000000     1.523189278338     1.007825032230
         C           -2.567221294450    -1.674760000000    -0.520820721662    12.000000000000
         O           -2.178801294450    -2.828310000000    -0.626150721662    15.994914619570
         N           -3.269661294450     0.995980000000    -0.098240721662    14.003074004430
         H           -2.985521294450    -1.208070000000    -2.612170721662     1.007825032230
         C           -3.283971294450     0.479940000000    -1.364570721662    12.000000000000
         H           -3.555761294450     1.173830000000    -2.145820721662     1.007825032230
         C           -2.972751294450    -0.809170000000    -1.612660721662    12.000000000000
         H           -3.387691294450     1.984290000000     0.056659278338     1.007825032230
         C           -2.904181294450     0.267980000000     1.018549278338    12.000000000000
         O           -2.819351294450     0.754590000000     2.129639278338    15.994914619570

  Charge       = 0
  Multiplicity = 1
  Basis Set: AUG-CC-PVTZ
    Blend: AUG-CC-PVTZ
  Basis Set: (AUG-CC-PVTZ AUX)
    Blend: AUG-CC-PVTZ-JKFIT

    Orbital Energies [Eh]
    ---------------------

    Doubly Occupied:

       1A    -20.548451     2A    -20.542079     3A    -15.645821
       4A    -15.628854     5A    -11.419934     6A    -11.381582
       7A    -11.341452     8A    -11.256385     9A     -1.437421
      10A     -1.397324    11A     -1.315306    12A     -1.247053
      13A     -1.089275    14A     -0.935245    15A     -0.902009
      16A     -0.807926    17A     -0.766216    18A     -0.715485
      19A     -0.678047    20A     -0.670797    21A     -0.653305
      22A     -0.614842    23A     -0.602591    24A     -0.571139
      25A     -0.527124    26A     -0.484954    27A     -0.450086
      28A     -0.437638    29A     -0.369929

  @DF-RHF Final Energy:  -412.62378242595889

   => Energetics <=

    Nuclear Repulsion Energy =            357.1600158833169303
    One-Electron Energy =               -1270.6910389480872254
    Two-Electron Energy =                 500.9072406388114587
    Total Energy =                       -412.6237824259588933

  Dipole Moment: [D]
     X:    -1.4449      Y:     3.7928      Z:    -2.9815     Total:     5.0361

    SAPT Results
  --------------------------------------------------------------------------------------------------------
    Electrostatics                 -1.03022133 [mEh]      -0.64647365 [kcal/mol]      -2.70484573 [kJ/mol]
      Elst10,r                     -1.34769690 [mEh]      -0.84569257 [kcal/mol]      -3.53837771 [kJ/mol]
      Elst12,r                      0.31747556 [mEh]       0.19921892 [kcal/mol]       0.83353198 [kJ/mol]

    Exchange                        0.00242503 [mEh]       0.00152173 [kcal/mol]       0.00636692 [kJ/mol]
      Exch10                        0.00206240 [mEh]       0.00129417 [kcal/mol]       0.00541483 [kJ/mol]
      Exch10(S^2)                   0.00206240 [mEh]       0.00129417 [kcal/mol]       0.00541483 [kJ/mol]
      Exch11(S^2)                  -0.00003815 [mEh]      -0.00002394 [kcal/mol]      -0.00010017 [kJ/mol]
      Exch12(S^2)                   0.00040079 [mEh]       0.00025150 [kcal/mol]       0.00105227 [kJ/mol]

    Induction                      -0.05933223 [mEh]      -0.03723154 [kcal/mol]      -0.15577675 [kJ/mol]
      Ind20,r                      -0.07808185 [mEh]      -0.04899710 [kcal/mol]      -0.20500387 [kJ/mol]
      Ind22                         0.02052901 [mEh]       0.01288215 [kcal/mol]       0.05389891 [kJ/mol]
      Exch-Ind20,r                  0.00046412 [mEh]       0.00029124 [kcal/mol]       0.00121855 [kJ/mol]
      Exch-Ind22                   -0.00012202 [mEh]      -0.00007657 [kcal/mol]      -0.00032038 [kJ/mol]
      delta HF,r (2)               -0.00212149 [mEh]      -0.00133125 [kcal/mol]      -0.00556996 [kJ/mol]

    Dispersion                     -0.77663531 [mEh]      -0.48734601 [kcal/mol]      -2.03905572 [kJ/mol]
      Disp20                       -0.80537925 [mEh]      -0.50538311 [kcal/mol]      -2.11452294 [kJ/mol]
      Disp21                        0.26330849 [mEh]       0.16522857 [kcal/mol]       0.69131634 [kJ/mol]
      Disp22 (SDQ)                 -0.03422174 [mEh]      -0.02147447 [kcal/mol]      -0.08984916 [kJ/mol]
      Disp22 (T)                   -0.19798840 [mEh]      -0.12423959 [kcal/mol]      -0.51981846 [kJ/mol]
      Est. Disp22 (T)              -0.20100654 [mEh]      -0.12613351 [kcal/mol]      -0.52774259 [kJ/mol]
      Exch-Disp20                   0.00066374 [mEh]       0.00041650 [kcal/mol]       0.00174264 [kJ/mol]

  Total HF                         -1.42537371 [mEh]      -0.89443551 [kcal/mol]      -3.74231817 [kJ/mol]
  Total SAPT0                      -2.23008923 [mEh]      -1.39940212 [kcal/mol]      -5.85509847 [kJ/mol]
  Total SAPT2                      -1.89184405 [mEh]      -1.18715006 [kcal/mol]      -4.96703586 [kJ/mol]
  Total SAPT2+                     -1.86376384 [mEh]      -1.16952946 [kcal/mol]      -4.89331128 [kJ/mol]

  Special recipe for scaled SAPT0 (see Manual):
    Electrostatics sSAPT0          -1.34769690 [mEh]      -0.84569257 [kcal/mol]      -3.53837771 [kJ/mol]
    Exchange sSAPT0                 0.00206240 [mEh]       0.00129417 [kcal/mol]       0.00541483 [kJ/mol]
    Induction sSAPT0               -0.07973922 [mEh]      -0.05003711 [kcal/mol]      -0.20935528 [kJ/mol]
    Dispersion sSAPT0              -0.80471552 [mEh]      -0.50496661 [kcal/mol]      -2.11278030 [kJ/mol]
  Total sSAPT0                     -2.23008923 [mEh]      -1.39940212 [kcal/mol]      -5.85509847 [kJ/mol]
  --------------------------------------------------------------------------------------------------------

*** Psi4 exiting successfully. Buy a developer a beer!
