                               Psi4 1.4a2.dev224

  ==> Input File <==

--------------------------------------------------------------------------
#Generated by lconvert.py for sapt job

memory 50 GB

molecule  {
0 1
  N       1.376900    0.839750    0.734620
  H       1.051810    1.386220    1.523360
  C       1.308980    1.457530   -0.520650
  O       0.920560    2.611080   -0.625980
  N       2.011420   -1.213210   -0.098070
  H       1.727290    0.990840   -2.612000
  C       2.025740   -0.697170   -1.364400
  H       2.297520   -1.391060   -2.145650
  C       1.714510    0.591940   -1.612490
  H       2.129450   -2.201520    0.056830
  C       1.645940   -0.485210    1.018720
  O       1.561120   -0.971820    2.129810
--
0 1
  N      -2.211420   -0.983820    0.734620
  H      -1.886340   -1.530300    1.523360
  C      -2.143510   -1.601610   -0.520650
  O      -1.755080   -2.755150   -0.625980
  N      -2.845940    1.069130   -0.098070
  H      -2.561810   -1.134920   -2.612000
  C      -2.860260    0.553100   -1.364400
  H      -3.132040    1.246980   -2.145650
  C      -2.549030   -0.736010   -1.612490
  H      -2.963980    2.057440    0.056830
  C      -2.480470    0.341130    1.018720
  O      -2.395640    0.827740    2.129810
units angstrom
no_reorient
symmetry c1
}

set {
scf_type DF
basis aug-cc-pvtz
freeze_core True
guess SAD
}
energy('sapt2+')
--------------------------------------------------------------------------

  //              Dimer HF             //
    Molecular point group: c1
  Charge       = 0
  Multiplicity = 1
  Basis Set: AUG-CC-PVTZ
    Blend: AUG-CC-PVTZ
  Basis Set: (AUG-CC-PVTZ AUX)
    Blend: AUG-CC-PVTZ-JKFIT
  @DF-RHF Final Energy:  -825.25189438121129
    Total Energy =                       -825.2518943812112866
  //            Monomer A HF           //
    Molecular point group: c1
  Multiplicity = 1
  Basis Set: AUG-CC-PVTZ
    Blend: AUG-CC-PVTZ
  Basis Set: (AUG-CC-PVTZ AUX)
    Blend: AUG-CC-PVTZ-JKFIT
  @DF-RHF Final Energy:  -412.62392794883363
    Total Energy =                       -412.6239279488336251
  //            Monomer B HF           //
    Molecular point group: c1

    Geometry (in Angstrom), charge = 0, multiplicity = 1:

       Center              X                  Y                   Z               Mass
    ------------   -----------------  -----------------  -----------------  -----------------
      Gh(N)           1.794161161130     0.911787589962     0.734449278338    14.003074004430
      Gh(H)           1.469071161130     1.458257589962     1.523189278338     1.007825032230
      Gh(C)           1.726241161130     1.529567589962    -0.520820721662    12.000000000000
      Gh(O)           1.337821161130     2.683117589962    -0.626150721662    15.994914619570
      Gh(N)           2.428681161130    -1.141172410038    -0.098240721662    14.003074004430
      Gh(H)           2.144551161130     1.062877589962    -2.612170721662     1.007825032230
      Gh(C)           2.443001161130    -0.625132410038    -1.364570721662    12.000000000000
      Gh(H)           2.714781161130    -1.319022410038    -2.145820721662     1.007825032230
      Gh(C)           2.131771161130     0.663977589962    -1.612660721662    12.000000000000
      Gh(H)           2.546711161130    -2.129482410038     0.056659278338     1.007825032230
      Gh(C)           2.063201161130    -0.413172410038     1.018549278338    12.000000000000
      Gh(O)           1.978381161130    -0.899782410038     2.129639278338    15.994914619570
         N           -1.794158838870    -0.911782410038     0.734449278338    14.003074004430
         H           -1.469078838870    -1.458262410038     1.523189278338     1.007825032230
         C           -1.726248838870    -1.529572410038    -0.520820721662    12.000000000000
         O           -1.337818838870    -2.683112410038    -0.626150721662    15.994914619570
         N           -2.428678838870     1.141167589962    -0.098240721662    14.003074004430
         H           -2.144548838870    -1.062882410038    -2.612170721662     1.007825032230
         C           -2.442998838870     0.625137589962    -1.364570721662    12.000000000000
         H           -2.714778838870     1.319017589962    -2.145820721662     1.007825032230
         C           -2.131768838870    -0.663972410038    -1.612660721662    12.000000000000
         H           -2.546718838870     2.129477589962     0.056659278338     1.007825032230
         C           -2.063208838870     0.413167589962     1.018549278338    12.000000000000
         O           -1.978378838870     0.899777589962     2.129639278338    15.994914619570

  Charge       = 0
  Multiplicity = 1
  Basis Set: AUG-CC-PVTZ
    Blend: AUG-CC-PVTZ
  Basis Set: (AUG-CC-PVTZ AUX)
    Blend: AUG-CC-PVTZ-JKFIT

    Orbital Energies [Eh]
    ---------------------

    Doubly Occupied:

       1A    -20.548390     2A    -20.542022     3A    -15.645793
       4A    -15.628825     5A    -11.419899     6A    -11.381549
       7A    -11.341420     8A    -11.256353     9A     -1.437389
      10A     -1.397291    11A     -1.315278    12A     -1.247026
      13A     -1.089248    14A     -0.935220    15A     -0.901984
      16A     -0.807898    17A     -0.766190    18A     -0.715460
      19A     -0.678020    20A     -0.670778    21A     -0.653275
      22A     -0.614815    23A     -0.602562    24A     -0.571122
      25A     -0.527111    26A     -0.484920    27A     -0.450053
      28A     -0.437623    29A     -0.369917

  @DF-RHF Final Energy:  -412.62392860162538

   => Energetics <=

    Nuclear Repulsion Energy =            357.1603571639104757
    One-Electron Energy =               -1270.6936954041548233
    Two-Electron Energy =                 500.9094096386189676
    Total Energy =                       -412.6239286016253800

  Dipole Moment: [D]
     X:    -1.4453      Y:     3.7920      Z:    -2.9805     Total:     5.0350

    SAPT Results
  --------------------------------------------------------------------------------------------------------
    Electrostatics                 -3.67543746 [mEh]      -2.30637183 [kcal/mol]      -9.64985973 [kJ/mol]
      Elst10,r                     -4.40856640 [mEh]      -2.76641718 [kcal/mol]     -11.57468948 [kJ/mol]
      Elst12,r                      0.73312893 [mEh]       0.46004535 [kcal/mol]       1.92482974 [kJ/mol]

    Exchange                        1.02730200 [mEh]       0.64464174 [kcal/mol]       2.69718102 [kJ/mol]
      Exch10                        0.89805867 [mEh]       0.56354032 [kcal/mol]       2.35785271 [kJ/mol]
      Exch10(S^2)                   0.89804001 [mEh]       0.56352861 [kcal/mol]       2.35780372 [kJ/mol]
      Exch11(S^2)                   0.00750331 [mEh]       0.00470840 [kcal/mol]       0.01969994 [kJ/mol]
      Exch12(S^2)                   0.12174002 [mEh]       0.07639302 [kcal/mol]       0.31962838 [kJ/mol]

    Induction                      -0.45947300 [mEh]      -0.28832366 [kcal/mol]      -1.20634621 [kJ/mol]
      Ind20,r                      -0.67964811 [mEh]      -0.42648563 [kcal/mol]      -1.78441586 [kJ/mol]
      Ind22                         0.09981512 [mEh]       0.06263493 [kcal/mol]       0.26206456 [kJ/mol]
      Exch-Ind20,r                  0.21765258 [mEh]       0.13657905 [kcal/mol]       0.57144677 [kJ/mol]
      Exch-Ind22                   -0.03196510 [mEh]      -0.02005840 [kcal/mol]      -0.08392435 [kJ/mol]
      delta HF,r (2)               -0.06532750 [mEh]      -0.04099362 [kcal/mol]      -0.17151732 [kJ/mol]

    Dispersion                     -5.69079509 [mEh]      -3.57102784 [kcal/mol]     -14.94118046 [kJ/mol]
      Disp20                       -5.88199518 [mEh]      -3.69100770 [kcal/mol]     -15.44317621 [kJ/mol]
      Disp21                        1.69092042 [mEh]       1.06106859 [kcal/mol]       4.43951096 [kJ/mol]
      Disp22 (SDQ)                 -0.24044200 [mEh]      -0.15087963 [kcal/mol]      -0.63128038 [kJ/mol]
      Disp22 (T)                   -1.35512011 [mEh]      -0.85035071 [kcal/mol]      -3.55786735 [kJ/mol]
      Est. Disp22 (T)              -1.42009098 [mEh]      -0.89112054 [kcal/mol]      -3.72844836 [kJ/mol]
      Exch-Disp20                   0.16081264 [mEh]       0.10091145 [kcal/mol]       0.42221352 [kJ/mol]

  Total HF                         -4.03783075 [mEh]      -2.53377705 [kcal/mol]     -10.60132318 [kJ/mol]
  Total SAPT0                      -9.75901329 [mEh]      -6.12387330 [kcal/mol]     -25.62228587 [kJ/mol]
  Total SAPT2                      -8.82879101 [mEh]      -5.54015000 [kcal/mol]     -23.17998761 [kJ/mol]
  Total SAPT2+                     -8.79840357 [mEh]      -5.52108159 [kcal/mol]     -23.10020538 [kJ/mol]

  Special recipe for scaled SAPT0 (see Manual):
    Electrostatics sSAPT0          -4.40856640 [mEh]      -2.76641718 [kcal/mol]     -11.57468948 [kJ/mol]
    Exchange sSAPT0                 0.89805867 [mEh]       0.56354032 [kcal/mol]       2.35785271 [kJ/mol]
    Induction sSAPT0               -0.52730946 [mEh]      -0.33089168 [kcal/mol]      -1.38445079 [kJ/mol]
    Dispersion sSAPT0              -5.72117252 [mEh]      -3.59008995 [kcal/mol]     -15.02093637 [kJ/mol]
  Total sSAPT0                     -9.75898970 [mEh]      -6.12385849 [kcal/mol]     -25.62222393 [kJ/mol]
  --------------------------------------------------------------------------------------------------------

*** Psi4 exiting successfully. Buy a developer a beer!
