                               Psi4 1.4a2.dev224

  ==> Input File <==

--------------------------------------------------------------------------
#Generated by lconvert.py for sapt job

memory 50 GB

molecule  {
0 1
  N       1.376900    0.839750    0.734620
  H       1.051810    1.386220    1.523360
  C       1.308980    1.457530   -0.520650
  O       0.920560    2.611080   -0.625980
  N       2.011420   -1.213210   -0.098070
  H       1.727290    0.990840   -2.612000
  C       2.025740   -0.697170   -1.364400
  H       2.297520   -1.391060   -2.145650
  C       1.714510    0.591940   -1.612490
  H       2.129450   -2.201520    0.056830
  C       1.645940   -0.485210    1.018720
  O       1.561120   -0.971820    2.129810
--
0 1
  N      -3.052400   -1.129020    0.734620
  H      -2.727310   -1.675490    1.523360
  C      -2.984480   -1.746800   -0.520650
  O      -2.596060   -2.900350   -0.625980
  N      -3.686920    0.923940   -0.098070
  H      -3.402790   -1.280110   -2.612000
  C      -3.701240    0.407900   -1.364400
  H      -3.973020    1.101790   -2.145650
  C      -3.390010   -0.881210   -1.612490
  H      -3.804960    1.912250    0.056830
  C      -3.321450    0.195940    1.018720
  O      -3.236620    0.682550    2.129810
units angstrom
no_reorient
symmetry c1
}

set {
scf_type DF
basis aug-cc-pvtz
freeze_core True
guess SAD
}
energy('sapt2+')
--------------------------------------------------------------------------

  //              Dimer HF             //
    Molecular point group: c1
  Charge       = 0
  Multiplicity = 1
  Basis Set: AUG-CC-PVTZ
    Blend: AUG-CC-PVTZ
  Basis Set: (AUG-CC-PVTZ AUX)
    Blend: AUG-CC-PVTZ-JKFIT
  @DF-RHF Final Energy:  -825.25006680419199
    Total Energy =                       -825.2500668041921017
  //            Monomer A HF           //
    Molecular point group: c1
  Multiplicity = 1
  Basis Set: AUG-CC-PVTZ
    Blend: AUG-CC-PVTZ
  Basis Set: (AUG-CC-PVTZ AUX)
    Blend: AUG-CC-PVTZ-JKFIT
  @DF-RHF Final Energy:  -412.62382989930535
    Total Energy =                       -412.6238298993053490
  //            Monomer B HF           //
    Molecular point group: c1

    Geometry (in Angstrom), charge = 0, multiplicity = 1:

       Center              X                  Y                   Z               Mass
    ------------   -----------------  -----------------  -----------------  -----------------
      Gh(N)           2.214650580565     0.984385000000     0.734449278338    14.003074004430
      Gh(H)           1.889560580565     1.530855000000     1.523189278338     1.007825032230
      Gh(C)           2.146730580565     1.602165000000    -0.520820721662    12.000000000000
      Gh(O)           1.758310580565     2.755715000000    -0.626150721662    15.994914619570
      Gh(N)           2.849170580565    -1.068575000000    -0.098240721662    14.003074004430
      Gh(H)           2.565040580565     1.135475000000    -2.612170721662     1.007825032230
      Gh(C)           2.863490580565    -0.552535000000    -1.364570721662    12.000000000000
      Gh(H)           3.135270580565    -1.246425000000    -2.145820721662     1.007825032230
      Gh(C)           2.552260580565     0.736575000000    -1.612660721662    12.000000000000
      Gh(H)           2.967200580565    -2.056885000000     0.056659278338     1.007825032230
      Gh(C)           2.483690580565    -0.340575000000     1.018549278338    12.000000000000
      Gh(O)           2.398870580565    -0.827185000000     2.129639278338    15.994914619570
         N           -2.214649419435    -0.984385000000     0.734449278338    14.003074004430
         H           -1.889559419435    -1.530855000000     1.523189278338     1.007825032230
         C           -2.146729419435    -1.602165000000    -0.520820721662    12.000000000000
         O           -1.758309419435    -2.755715000000    -0.626150721662    15.994914619570
         N           -2.849169419435     1.068575000000    -0.098240721662    14.003074004430
         H           -2.565039419435    -1.135475000000    -2.612170721662     1.007825032230
         C           -2.863489419435     0.552535000000    -1.364570721662    12.000000000000
         H           -3.135269419435     1.246425000000    -2.145820721662     1.007825032230
         C           -2.552259419435    -0.736575000000    -1.612660721662    12.000000000000
         H           -2.967209419435     2.056885000000     0.056659278338     1.007825032230
         C           -2.483699419435     0.340575000000     1.018549278338    12.000000000000
         O           -2.398869419435     0.827185000000     2.129639278338    15.994914619570

  Charge       = 0
  Multiplicity = 1
  Basis Set: AUG-CC-PVTZ
    Blend: AUG-CC-PVTZ
  Basis Set: (AUG-CC-PVTZ AUX)
    Blend: AUG-CC-PVTZ-JKFIT

    Orbital Energies [Eh]
    ---------------------

    Doubly Occupied:

       1A    -20.548433     2A    -20.542060     3A    -15.645814
       4A    -15.628847     5A    -11.419925     6A    -11.381573
       7A    -11.341441     8A    -11.256374     9A     -1.437412
      10A     -1.397313    11A     -1.315298    12A     -1.247045
      13A     -1.089267    14A     -0.935238    15A     -0.902002
      16A     -0.807919    17A     -0.766209    18A     -0.715478
      19A     -0.678040    20A     -0.670791    21A     -0.653297
      22A     -0.614833    23A     -0.602583    24A     -0.571133
      25A     -0.527121    26A     -0.484944    27A     -0.450075
      28A     -0.437634    29A     -0.369925

  @DF-RHF Final Energy:  -412.62382981256678

   => Energetics <=

    Nuclear Repulsion Energy =            357.1599651543115783
    One-Electron Energy =               -1270.6915208177606473
    Two-Electron Energy =                 500.9077258508823434
    Total Energy =                       -412.6238298125667825

  Dipole Moment: [D]
     X:    -1.4454      Y:     3.7926      Z:    -2.9815     Total:     5.0361

    SAPT Results
  --------------------------------------------------------------------------------------------------------
    Electrostatics                 -1.77772793 [mEh]      -1.11554112 [kcal/mol]      -4.66742403 [kJ/mol]
      Elst10,r                     -2.27013406 [mEh]      -1.42453063 [kcal/mol]      -5.96023616 [kJ/mol]
      Elst12,r                      0.49240613 [mEh]       0.30898951 [kcal/mol]       1.29281213 [kJ/mol]

    Exchange                        0.05110354 [mEh]       0.03206796 [kcal/mol]       0.13417233 [kJ/mol]
      Exch10                        0.04344293 [mEh]       0.02726085 [kcal/mol]       0.11405938 [kJ/mol]
      Exch10(S^2)                   0.04344308 [mEh]       0.02726094 [kcal/mol]       0.11405978 [kJ/mol]
      Exch11(S^2)                  -0.00025156 [mEh]      -0.00015786 [kcal/mol]      -0.00066047 [kJ/mol]
      Exch12(S^2)                   0.00791218 [mEh]       0.00496497 [kcal/mol]       0.02077342 [kJ/mol]

    Induction                      -0.13413686 [mEh]      -0.08417215 [kcal/mol]      -0.35217628 [kJ/mol]
      Ind20,r                      -0.17971632 [mEh]      -0.11277369 [kcal/mol]      -0.47184513 [kJ/mol]
      Ind22                         0.04867495 [mEh]       0.03054399 [kcal/mol]       0.12779606 [kJ/mol]
      Exch-Ind20,r                  0.00890046 [mEh]       0.00558512 [kcal/mol]       0.02336815 [kJ/mol]
      Exch-Ind22                   -0.00241063 [mEh]      -0.00151269 [kcal/mol]      -0.00632910 [kJ/mol]
      delta HF,r (2)               -0.00958532 [mEh]      -0.00601488 [kcal/mol]      -0.02516626 [kJ/mol]

    Dispersion                     -1.93231551 [mEh]      -1.21254629 [kcal/mol]      -5.07329367 [kJ/mol]
      Disp20                       -1.98912625 [mEh]      -1.24819557 [kcal/mol]      -5.22245025 [kJ/mol]
      Disp21                        0.62286279 [mEh]       0.39085230 [kcal/mol]       1.63532602 [kJ/mol]
      Disp22 (SDQ)                 -0.08529263 [mEh]      -0.05352193 [kcal/mol]      -0.22393576 [kJ/mol]
      Disp22 (T)                   -0.47831040 [mEh]      -0.30014431 [kcal/mol]      -1.25580378 [kJ/mol]
      Est. Disp22 (T)              -0.49123385 [mEh]      -0.30825390 [kcal/mol]      -1.28973431 [kJ/mol]
      Exch-Disp20                   0.01047444 [mEh]       0.00657281 [kcal/mol]       0.02750063 [kJ/mol]

  Total HF                         -2.40709232 [mEh]      -1.51047323 [kcal/mol]      -6.31982002 [kJ/mol]
  Total SAPT0                      -4.38574413 [mEh]      -2.75209599 [kcal/mol]     -11.51476964 [kJ/mol]
  Total SAPT2                      -3.83941306 [mEh]      -2.40926807 [kcal/mol]     -10.08037761 [kJ/mol]
  Total SAPT2+                     -3.79307676 [mEh]      -2.38019160 [kcal/mol]      -9.95872166 [kJ/mol]

  Special recipe for scaled SAPT0 (see Manual):
    Electrostatics sSAPT0          -2.27013406 [mEh]      -1.42453063 [kcal/mol]      -5.96023616 [kJ/mol]
    Exchange sSAPT0                 0.04344293 [mEh]       0.02726085 [kcal/mol]       0.11405938 [kJ/mol]
    Induction sSAPT0               -0.18040128 [mEh]      -0.11320351 [kcal/mol]      -0.47364348 [kJ/mol]
    Dispersion sSAPT0              -1.97865192 [mEh]      -1.24162283 [kcal/mol]      -5.19494991 [kJ/mol]
  Total sSAPT0                     -4.38574434 [mEh]      -2.75209612 [kcal/mol]     -11.51477017 [kJ/mol]
  --------------------------------------------------------------------------------------------------------

*** Psi4 exiting successfully. Buy a developer a beer!
