                               Psi4 1.4a2.dev224

  ==> Input File <==

--------------------------------------------------------------------------
#Generated by lconvert.py for sapt job

memory 50 GB

molecule  {
0 1
  C       0.818750    0.864170    0.188290
  H       1.466110    1.716670    0.344720
  C       1.369000   -0.390520   -0.066700
  H       2.443040   -0.511860   -0.110570
  C       0.534380   -1.488490   -0.271890
  H       0.960850   -2.461560   -0.475510
  C      -0.849120   -1.330510   -0.219900
  H      -1.497070   -2.181860   -0.379550
  C      -1.399490   -0.076030    0.040430
  H      -2.472690    0.044910    0.093380
  C      -0.565290    1.021400    0.242280
  H      -0.992560    1.993660    0.446260
--
0 1
  N      -2.658420    0.289400    4.466130
  C      -2.043530    1.447070    4.746200
  H      -2.691140    2.300240    4.908710
  C      -0.661320    1.587920    4.836370
  H      -0.229470    2.551570    5.067580
  C       0.139630    0.470940    4.622150
  H       1.217200    0.541320    4.676990
  C      -0.480920   -0.737720    4.328490
  H       0.094850   -1.633340    4.144420
  C      -1.871430   -0.775750    4.263040
  H      -2.380290   -1.704210    4.034200
units angstrom
no_reorient
symmetry c1
}

set {
scf_type DF
basis aug-cc-pvtz
freeze_core True
guess SAD
}
energy('sapt2+')
--------------------------------------------------------------------------

  //              Dimer HF             //
    Molecular point group: c1
  Charge       = 0
  Multiplicity = 1
  Basis Set: AUG-CC-PVTZ
    Blend: AUG-CC-PVTZ
  Basis Set: (AUG-CC-PVTZ AUX)
    Blend: AUG-CC-PVTZ-JKFIT
  @DF-RHF Final Energy:  -477.55968653222993
    Total Energy =                       -477.5596865322299891
  //            Monomer A HF           //
    Molecular point group: c1
  Multiplicity = 1
  Basis Set: AUG-CC-PVTZ
    Blend: AUG-CC-PVTZ
  Basis Set: (AUG-CC-PVTZ AUX)
    Blend: AUG-CC-PVTZ-JKFIT
  @DF-RHF Final Energy:  -230.78133154057056
    Total Energy =                       -230.7813315405705907
  //            Monomer B HF           //
    Molecular point group: c1

    Geometry (in Angstrom), charge = 0, multiplicity = 1:

       Center              X                  Y                   Z               Mass
    ------------   -----------------  -----------------  -----------------  -----------------
      Gh(C)           1.464569508831     0.788907518239    -2.090500895343    12.000000000000
      Gh(H)           2.111929508831     1.641407518239    -1.934070895343     1.007825032230
      Gh(C)           2.014819508831    -0.465782481761    -2.345490895343    12.000000000000
      Gh(H)           3.088859508831    -0.587122481761    -2.389360895343     1.007825032230
      Gh(C)           1.180199508831    -1.563752481761    -2.550680895343    12.000000000000
      Gh(H)           1.606669508831    -2.536822481761    -2.754300895343     1.007825032230
      Gh(C)          -0.203300491169    -1.405772481761    -2.498690895343    12.000000000000
      Gh(H)          -0.851250491169    -2.257122481761    -2.658340895343     1.007825032230
      Gh(C)          -0.753670491169    -0.151292481761    -2.238360895343    12.000000000000
      Gh(H)          -1.826870491169    -0.030352481761    -2.185410895343     1.007825032230
      Gh(C)           0.080529508831     0.946137518239    -2.036510895343    12.000000000000
      Gh(H)          -0.346740491169     1.918397518239    -1.832530895343     1.007825032230
         N           -2.012600491169     0.214137518239     2.187339104657    14.003074004430
         C           -1.397710491169     1.371807518239     2.467409104657    12.000000000000
         H           -2.045320491169     2.224977518239     2.629919104657     1.007825032230
         C           -0.015500491169     1.512657518239     2.557579104657    12.000000000000
         H            0.416349508831     2.476307518239     2.788789104657     1.007825032230
         C            0.785449508831     0.395677518239     2.343359104657    12.000000000000
         H            1.863019508831     0.466057518239     2.398199104657     1.007825032230
         C            0.164899508831    -0.812982481761     2.049699104657    12.000000000000
         H            0.740669508831    -1.708602481761     1.865629104657     1.007825032230
         C           -1.225610491169    -0.851012481761     1.984249104657    12.000000000000
         H           -1.734470491169    -1.779472481761     1.755409104657     1.007825032230

  Charge       = 0
  Multiplicity = 1
  Basis Set: AUG-CC-PVTZ
    Blend: AUG-CC-PVTZ
  Basis Set: (AUG-CC-PVTZ AUX)
    Blend: AUG-CC-PVTZ-JKFIT

    Orbital Energies [Eh]
    ---------------------

    Doubly Occupied:

       1A    -15.567510     2A    -11.275476     3A    -11.275414
       4A    -11.260645     5A    -11.242565     6A    -11.242412
       7A     -1.257164     8A     -1.090562     9A     -1.034005
      10A     -0.859921    11A     -0.856220    12A     -0.722363
      13A     -0.661037    14A     -0.654612    15A     -0.598520
      16A     -0.577683    17A     -0.541637    18A     -0.520240
      19A     -0.420203    20A     -0.384505    21A     -0.348161

  @DF-RHF Final Energy:  -246.77877979108393

   => Energetics <=

    Nuclear Repulsion Energy =            206.2595906863072059
    One-Electron Energy =                -741.2950261726946337
    Two-Electron Energy =                 288.2566556953034933
    Total Energy =                       -246.7787797910839345

  Dipole Moment: [D]
     X:     2.3268      Y:     0.1527      Z:     0.1183     Total:     2.3348

    SAPT Results
  --------------------------------------------------------------------------------------------------------
    Electrostatics                 -0.14932148 [mEh]      -0.09370064 [kcal/mol]      -0.39204349 [kJ/mol]
      Elst10,r                     -0.02821223 [mEh]      -0.01770344 [kcal/mol]      -0.07407121 [kJ/mol]
      Elst12,r                     -0.12110924 [mEh]      -0.07599720 [kcal/mol]      -0.31797227 [kJ/mol]

    Exchange                        0.64059164 [mEh]       0.40197732 [kcal/mol]       1.68187311 [kJ/mol]
      Exch10                        0.63639887 [mEh]       0.39934632 [kcal/mol]       1.67086499 [kJ/mol]
      Exch10(S^2)                   0.63631974 [mEh]       0.39929666 [kcal/mol]       1.67065724 [kJ/mol]
      Exch11(S^2)                   0.03296451 [mEh]       0.02068554 [kcal/mol]       0.08654830 [kJ/mol]
      Exch12(S^2)                  -0.02877174 [mEh]      -0.01805454 [kcal/mol]      -0.07554019 [kJ/mol]

    Induction                      -0.17277891 [mEh]      -0.10842040 [kcal/mol]      -0.45363096 [kJ/mol]
      Ind20,r                      -0.36665025 [mEh]      -0.23007650 [kcal/mol]      -0.96264009 [kJ/mol]
      Ind22                         0.02797859 [mEh]       0.01755683 [kcal/mol]       0.07345777 [kJ/mol]
      Exch-Ind20,r                  0.22763196 [mEh]       0.14284121 [kcal/mol]       0.59764762 [kJ/mol]
      Exch-Ind22                   -0.01737029 [mEh]      -0.01090002 [kcal/mol]      -0.04560569 [kJ/mol]
      delta HF,r (2)               -0.04436892 [mEh]      -0.02784191 [kcal/mol]      -0.11649057 [kJ/mol]

    Dispersion                     -3.26304939 [mEh]      -2.04759441 [kcal/mol]      -8.56713500 [kJ/mol]
      Disp20                       -4.00221658 [mEh]      -2.51142882 [kcal/mol]     -10.50781819 [kJ/mol]
      Disp21                        1.35918945 [mEh]       0.85290426 [kcal/mol]       3.56855142 [kJ/mol]
      Disp22 (SDQ)                  0.18013016 [mEh]       0.11303338 [kcal/mol]       0.47293167 [kJ/mol]
      Disp22 (T)                   -0.91725437 [mEh]      -0.57558581 [kcal/mol]      -2.40825101 [kJ/mol]
      Est. Disp22 (T)              -0.97813948 [mEh]      -0.61379179 [kcal/mol]      -2.56810485 [kJ/mol]
      Exch-Disp20                   0.17798706 [mEh]       0.11168857 [kcal/mol]       0.46730496 [kJ/mol]

  Total HF                          0.42479942 [mEh]       0.26656566 [kcal/mol]       1.11531074 [kJ/mol]
  Total SAPT0                      -3.39943010 [mEh]      -2.13317459 [kcal/mol]      -8.92520250 [kJ/mol]
  Total SAPT2                      -3.50573827 [mEh]      -2.19988398 [kcal/mol]      -9.20431457 [kJ/mol]
  Total SAPT2+                     -2.94455814 [mEh]      -1.84773813 [kcal/mol]      -7.73093633 [kJ/mol]

  Special recipe for scaled SAPT0 (see Manual):
    Electrostatics sSAPT0          -0.02821223 [mEh]      -0.01770344 [kcal/mol]      -0.07407121 [kJ/mol]
    Exchange sSAPT0                 0.63639887 [mEh]       0.39934632 [kcal/mol]       1.67086499 [kJ/mol]
    Induction sSAPT0               -0.18330227 [mEh]      -0.11502391 [kcal/mol]      -0.48126006 [kJ/mol]
    Dispersion sSAPT0              -3.82416311 [mEh]      -2.39969858 [kcal/mol]     -10.04033887 [kJ/mol]
  Total sSAPT0                     -3.39927876 [mEh]      -2.13307962 [kcal/mol]      -8.92480515 [kJ/mol]
  --------------------------------------------------------------------------------------------------------

*** Psi4 exiting successfully. Buy a developer a beer!
