                               Psi4 1.4a2.dev224

  ==> Input File <==

--------------------------------------------------------------------------
#Generated by lconvert.py for sapt job

memory 50 GB

molecule  {
0 1
  C       0.818750    0.864170    0.188290
  H       1.466110    1.716670    0.344720
  C       1.369000   -0.390520   -0.066700
  H       2.443040   -0.511860   -0.110570
  C       0.534380   -1.488490   -0.271890
  H       0.960850   -2.461560   -0.475510
  C      -0.849120   -1.330510   -0.219900
  H      -1.497070   -2.181860   -0.379550
  C      -1.399490   -0.076030    0.040430
  H      -2.472690    0.044910    0.093380
  C      -0.565290    1.021400    0.242280
  H      -0.992560    1.993660    0.446260
--
0 1
  N      -2.944490    0.429430    5.506720
  C      -2.329600    1.587100    5.786780
  H      -2.977210    2.440270    5.949300
  C      -0.947390    1.727950    5.876950
  H      -0.515540    2.691600    6.108170
  C      -0.146440    0.610970    5.662740
  H       0.931130    0.681350    5.717580
  C      -0.766990   -0.597690    5.369080
  H      -0.191210   -1.493310    5.185010
  C      -2.157500   -0.635730    5.303630
  H      -2.666350   -1.564180    5.074790
units angstrom
no_reorient
symmetry c1
}

set {
scf_type DF
basis aug-cc-pvtz
freeze_core True
guess SAD
}
energy('sapt2+')
--------------------------------------------------------------------------

  //              Dimer HF             //
    Molecular point group: c1
  Charge       = 0
  Multiplicity = 1
  Basis Set: AUG-CC-PVTZ
    Blend: AUG-CC-PVTZ
  Basis Set: (AUG-CC-PVTZ AUX)
    Blend: AUG-CC-PVTZ-JKFIT
  @DF-RHF Final Energy:  -477.55995977825000
    Total Energy =                       -477.5599597782500041
  //            Monomer A HF           //
    Molecular point group: c1
  Multiplicity = 1
  Basis Set: AUG-CC-PVTZ
    Blend: AUG-CC-PVTZ
  Basis Set: (AUG-CC-PVTZ AUX)
    Blend: AUG-CC-PVTZ-JKFIT
  @DF-RHF Final Energy:  -230.78127261001384
    Total Energy =                       -230.7812726100138434
  //            Monomer B HF           //
    Molecular point group: c1

    Geometry (in Angstrom), charge = 0, multiplicity = 1:

       Center              X                  Y                   Z               Mass
    ------------   -----------------  -----------------  -----------------  -----------------
      Gh(C)           1.608510588473     0.718449697350    -2.614090731849    12.000000000000
      Gh(H)           2.255870588473     1.570949697350    -2.457660731849     1.007825032230
      Gh(C)           2.158760588473    -0.536240302650    -2.869080731849    12.000000000000
      Gh(H)           3.232800588473    -0.657580302650    -2.912950731849     1.007825032230
      Gh(C)           1.324140588473    -1.634210302650    -3.074270731849    12.000000000000
      Gh(H)           1.750610588473    -2.607280302650    -3.277890731849     1.007825032230
      Gh(C)          -0.059359411527    -1.476230302650    -3.022280731849    12.000000000000
      Gh(H)          -0.707309411527    -2.327580302650    -3.181930731849     1.007825032230
      Gh(C)          -0.609729411527    -0.221750302650    -2.761950731849    12.000000000000
      Gh(H)          -1.682929411527    -0.100810302650    -2.709000731849     1.007825032230
      Gh(C)           0.224470588473     0.875679697350    -2.560100731849    12.000000000000
      Gh(H)          -0.202799411527     1.847939697350    -2.356120731849     1.007825032230
         N           -2.154729411527     0.283709697350     2.704339268151    14.003074004430
         C           -1.539839411527     1.441379697350     2.984399268151    12.000000000000
         H           -2.187449411527     2.294549697350     3.146919268151     1.007825032230
         C           -0.157629411527     1.582229697350     3.074569268151    12.000000000000
         H            0.274220588473     2.545879697350     3.305789268151     1.007825032230
         C            0.643320588473     0.465249697350     2.860359268151    12.000000000000
         H            1.720890588473     0.535629697350     2.915199268151     1.007825032230
         C            0.022770588473    -0.743410302650     2.566699268151    12.000000000000
         H            0.598550588473    -1.639030302650     2.382629268151     1.007825032230
         C           -1.367739411527    -0.781450302650     2.501249268151    12.000000000000
         H           -1.876589411527    -1.709900302650     2.272409268151     1.007825032230

  Charge       = 0
  Multiplicity = 1
  Basis Set: AUG-CC-PVTZ
    Blend: AUG-CC-PVTZ
  Basis Set: (AUG-CC-PVTZ AUX)
    Blend: AUG-CC-PVTZ-JKFIT

    Orbital Energies [Eh]
    ---------------------

    Doubly Occupied:

       1A    -15.567529     2A    -11.275490     3A    -11.275431
       4A    -11.260664     5A    -11.242581     6A    -11.242431
       7A     -1.257179     8A     -1.090580     9A     -1.034021
      10A     -0.859939    11A     -0.856237    12A     -0.722382
      13A     -0.661053    14A     -0.654629    15A     -0.598537
      16A     -0.577702    17A     -0.541640    18A     -0.520258
      19A     -0.420215    20A     -0.384514    21A     -0.348170

  @DF-RHF Final Energy:  -246.77872144551958

   => Energetics <=

    Nuclear Repulsion Energy =            206.2594948974557099
    One-Electron Energy =                -741.2940588511166879
    Two-Electron Energy =                 288.2558425081413702
    Total Energy =                       -246.7787214455195794

  Dipole Moment: [D]
     X:     2.3272      Y:     0.1527      Z:     0.1179     Total:     2.3351

    SAPT Results
  --------------------------------------------------------------------------------------------------------
    Electrostatics                 -0.00669485 [mEh]      -0.00420108 [kcal/mol]      -0.01757733 [kJ/mol]
      Elst10,r                      0.05262794 [mEh]       0.03302453 [kcal/mol]       0.13817465 [kJ/mol]
      Elst12,r                     -0.05932279 [mEh]      -0.03722562 [kcal/mol]      -0.15575198 [kJ/mol]

    Exchange                        0.02624353 [mEh]       0.01646807 [kcal/mol]       0.06890239 [kJ/mol]
      Exch10                        0.02576084 [mEh]       0.01616517 [kcal/mol]       0.06763508 [kJ/mol]
      Exch10(S^2)                   0.02576078 [mEh]       0.01616513 [kcal/mol]       0.06763491 [kJ/mol]
      Exch11(S^2)                   0.00094557 [mEh]       0.00059336 [kcal/mol]       0.00248260 [kJ/mol]
      Exch12(S^2)                  -0.00046288 [mEh]      -0.00029046 [kcal/mol]      -0.00121529 [kJ/mol]

    Induction                      -0.04084708 [mEh]      -0.02563193 [kcal/mol]      -0.10724399 [kJ/mol]
      Ind20,r                      -0.05078789 [mEh]      -0.03186988 [kcal/mol]      -0.13334359 [kJ/mol]
      Ind22                         0.00387171 [mEh]       0.00242953 [kcal/mol]       0.01016517 [kJ/mol]
      Exch-Ind20,r                  0.00796617 [mEh]       0.00499885 [kcal/mol]       0.02091518 [kJ/mol]
      Exch-Ind22                   -0.00060728 [mEh]      -0.00038108 [kcal/mol]      -0.00159443 [kJ/mol]
      delta HF,r (2)               -0.00128978 [mEh]      -0.00080935 [kcal/mol]      -0.00338632 [kJ/mol]

    Dispersion                     -0.92204979 [mEh]      -0.57859498 [kcal/mol]      -2.42084138 [kJ/mol]
      Disp20                       -1.10344873 [mEh]      -0.69242453 [kcal/mol]      -2.89710423 [kJ/mol]
      Disp21                        0.41164734 [mEh]       0.25831260 [kcal/mol]       1.08077993 [kJ/mol]
      Disp22 (SDQ)                  0.03415371 [mEh]       0.02143178 [kcal/mol]       0.08967055 [kJ/mol]
      Disp22 (T)                   -0.26435430 [mEh]      -0.16588483 [kcal/mol]      -0.69406213 [kJ/mol]
      Est. Disp22 (T)              -0.27456119 [mEh]      -0.17228975 [kcal/mol]      -0.72086030 [kJ/mol]
      Exch-Disp20                   0.01015908 [mEh]       0.00637492 [kcal/mol]       0.02667267 [kJ/mol]

  Total HF                          0.03427728 [mEh]       0.02150932 [kcal/mol]       0.08999500 [kJ/mol]
  Total SAPT0                      -1.05901236 [mEh]      -0.66454029 [kcal/mol]      -2.78043656 [kJ/mol]
  Total SAPT2                      -1.11458803 [mEh]      -0.69941455 [kcal/mol]      -2.92635048 [kJ/mol]
  Total SAPT2+                     -0.94334818 [mEh]      -0.59195992 [kcal/mol]      -2.47676030 [kJ/mol]

  Special recipe for scaled SAPT0 (see Manual):
    Electrostatics sSAPT0           0.05262794 [mEh]       0.03302453 [kcal/mol]       0.13817465 [kJ/mol]
    Exchange sSAPT0                 0.02576084 [mEh]       0.01616517 [kcal/mol]       0.06763508 [kJ/mol]
    Induction sSAPT0               -0.04411144 [mEh]      -0.02768035 [kcal/mol]      -0.11581458 [kJ/mol]
    Dispersion sSAPT0              -1.09328957 [mEh]      -0.68604956 [kcal/mol]      -2.87043136 [kJ/mol]
  Total sSAPT0                     -1.05901222 [mEh]      -0.66454020 [kcal/mol]      -2.78043621 [kJ/mol]
  --------------------------------------------------------------------------------------------------------

*** Psi4 exiting successfully. Buy a developer a beer!
