                               Psi4 1.4a2.dev224

  ==> Input File <==

--------------------------------------------------------------------------
#Generated by lconvert.py for sapt job

memory 50 GB

molecule  {
0 1
  C       0.818750    0.864170    0.188290
  H       1.466110    1.716670    0.344720
  C       1.369000   -0.390520   -0.066700
  H       2.443040   -0.511860   -0.110570
  C       0.534380   -1.488490   -0.271890
  H       0.960850   -2.461560   -0.475510
  C      -0.849120   -1.330510   -0.219900
  H      -1.497070   -2.181860   -0.379550
  C      -1.399490   -0.076030    0.040430
  H      -2.472690    0.044910    0.093380
  C      -0.565290    1.021400    0.242280
  H      -0.992560    1.993660    0.446260
--
0 1
  N      -3.230560    0.569460    6.547310
  C      -2.615670    1.727130    6.827370
  H      -3.263270    2.580300    6.989890
  C      -1.233450    1.867970    6.917540
  H      -0.801610    2.831620    7.148760
  C      -0.432500    0.750990    6.703330
  H       0.645070    0.821380    6.758160
  C      -1.053060   -0.457660    6.409670
  H      -0.477280   -1.353280    6.225600
  C      -2.443570   -0.495700    6.344220
  H      -2.952420   -1.424150    6.115380
units angstrom
no_reorient
symmetry c1
}

set {
scf_type DF
basis aug-cc-pvtz
freeze_core True
guess SAD
}
energy('sapt2+')
--------------------------------------------------------------------------

  //              Dimer HF             //
    Molecular point group: c1
  Charge       = 0
  Multiplicity = 1
  Basis Set: AUG-CC-PVTZ
    Blend: AUG-CC-PVTZ
  Basis Set: (AUG-CC-PVTZ AUX)
    Blend: AUG-CC-PVTZ-JKFIT
  @DF-RHF Final Energy:  -477.55997494218849
    Total Energy =                       -477.5599749421885463
  //            Monomer A HF           //
    Molecular point group: c1
  Multiplicity = 1
  Basis Set: AUG-CC-PVTZ
    Blend: AUG-CC-PVTZ
  Basis Set: (AUG-CC-PVTZ AUX)
    Blend: AUG-CC-PVTZ-JKFIT
  @DF-RHF Final Energy:  -230.78125365598345
    Total Energy =                       -230.7812536559834484
  //            Monomer B HF           //
    Molecular point group: c1

    Geometry (in Angstrom), charge = 0, multiplicity = 1:

       Center              X                  Y                   Z               Mass
    ------------   -----------------  -----------------  -----------------  -----------------
      Gh(C)           1.752450140320     0.647992704514    -3.137682031994    12.000000000000
      Gh(H)           2.399810140320     1.500492704514    -2.981252031994     1.007825032230
      Gh(C)           2.302700140320    -0.606697295486    -3.392672031994    12.000000000000
      Gh(H)           3.376740140320    -0.728037295486    -3.436542031994     1.007825032230
      Gh(C)           1.468080140320    -1.704667295486    -3.597862031994    12.000000000000
      Gh(H)           1.894550140320    -2.677737295486    -3.801482031994     1.007825032230
      Gh(C)           0.084580140320    -1.546687295486    -3.545872031994    12.000000000000
      Gh(H)          -0.563369859680    -2.398037295486    -3.705522031994     1.007825032230
      Gh(C)          -0.465789859680    -0.292207295486    -3.285542031994    12.000000000000
      Gh(H)          -1.538989859680    -0.171267295486    -3.232592031994     1.007825032230
      Gh(C)           0.368410140320     0.805222704514    -3.083692031994    12.000000000000
      Gh(H)          -0.058859859680     1.777482704514    -2.879712031994     1.007825032230
         N           -2.296859859680     0.353282704514     3.221337968006    14.003074004430
         C           -1.681969859680     1.510952704514     3.501397968006    12.000000000000
         H           -2.329569859680     2.364122704514     3.663917968006     1.007825032230
         C           -0.299749859680     1.651792704514     3.591567968006    12.000000000000
         H            0.132090140320     2.615442704514     3.822787968006     1.007825032230
         C            0.501200140320     0.534812704514     3.377357968006    12.000000000000
         H            1.578770140320     0.605202704514     3.432187968006     1.007825032230
         C           -0.119359859680    -0.673837295486     3.083697968006    12.000000000000
         H            0.456420140320    -1.569457295486     2.899627968006     1.007825032230
         C           -1.509869859680    -0.711877295486     3.018247968006    12.000000000000
         H           -2.018719859680    -1.640327295486     2.789407968006     1.007825032230

  Charge       = 0
  Multiplicity = 1
  Basis Set: AUG-CC-PVTZ
    Blend: AUG-CC-PVTZ
  Basis Set: (AUG-CC-PVTZ AUX)
    Blend: AUG-CC-PVTZ-JKFIT

    Orbital Energies [Eh]
    ---------------------

    Doubly Occupied:

       1A    -15.567534     2A    -11.275494     3A    -11.275435
       4A    -11.260668     5A    -11.242585     6A    -11.242436
       7A     -1.257181     8A     -1.090585     9A     -1.034023
      10A     -0.859943    11A     -0.856241    12A     -0.722386
      13A     -0.661057    14A     -0.654633    15A     -0.598540
      16A     -0.577708    17A     -0.541639    18A     -0.520263
      19A     -0.420217    20A     -0.384517    21A     -0.348171

  @DF-RHF Final Energy:  -246.77870472350841

   => Energetics <=

    Nuclear Repulsion Energy =            206.2594403912710561
    One-Electron Energy =                -741.2937746836640827
    Two-Electron Energy =                 288.2556295688846149
    Total Energy =                       -246.7787047235084401

  Dipole Moment: [D]
     X:     2.3273      Y:     0.1525      Z:     0.1177     Total:     2.3352

    SAPT Results
  --------------------------------------------------------------------------------------------------------
    Electrostatics                 -0.02809718 [mEh]      -0.01763125 [kcal/mol]      -0.07376913 [kJ/mol]
      Elst10,r                     -0.00360534 [mEh]      -0.00226239 [kcal/mol]      -0.00946582 [kJ/mol]
      Elst12,r                     -0.02449184 [mEh]      -0.01536886 [kcal/mol]      -0.06430331 [kJ/mol]

    Exchange                        0.00097216 [mEh]       0.00061004 [kcal/mol]       0.00255241 [kJ/mol]
      Exch10                        0.00095144 [mEh]       0.00059704 [kcal/mol]       0.00249801 [kJ/mol]
      Exch10(S^2)                   0.00095144 [mEh]       0.00059704 [kcal/mol]       0.00249801 [kJ/mol]
      Exch11(S^2)                   0.00001723 [mEh]       0.00001081 [kcal/mol]       0.00004524 [kJ/mol]
      Exch12(S^2)                   0.00000349 [mEh]       0.00000219 [kcal/mol]       0.00000916 [kJ/mol]

    Induction                      -0.01293801 [mEh]      -0.00811872 [kcal/mol]      -0.03396874 [kJ/mol]
      Ind20,r                      -0.01438405 [mEh]      -0.00902613 [kcal/mol]      -0.03776531 [kJ/mol]
      Ind22                         0.00099336 [mEh]       0.00062334 [kcal/mol]       0.00260806 [kJ/mol]
      Exch-Ind20,r                  0.00032683 [mEh]       0.00020509 [kcal/mol]       0.00085809 [kJ/mol]
      Exch-Ind22                   -0.00002257 [mEh]      -0.00001416 [kcal/mol]      -0.00005926 [kJ/mol]
      delta HF,r (2)                0.00014842 [mEh]       0.00009314 [kcal/mol]       0.00038968 [kJ/mol]

    Dispersion                     -0.32015460 [mEh]      -0.20090005 [kcal/mol]      -0.84056580 [kJ/mol]
      Disp20                       -0.38371846 [mEh]      -0.24078697 [kcal/mol]      -1.00745268 [kJ/mol]
      Disp21                        0.15147777 [mEh]       0.09505374 [kcal/mol]       0.39770483 [kJ/mol]
      Disp22 (SDQ)                  0.00773201 [mEh]       0.00485191 [kcal/mol]       0.02030038 [kJ/mol]
      Disp22 (T)                   -0.09423246 [mEh]      -0.05913176 [kcal/mol]      -0.24740728 [kJ/mol]
      Est. Disp22 (T)              -0.09617816 [mEh]      -0.06035271 [kcal/mol]      -0.25251573 [kJ/mol]
      Exch-Disp20                   0.00053224 [mEh]       0.00033399 [kcal/mol]       0.00139740 [kJ/mol]

  Total HF                         -0.01656270 [mEh]      -0.01039325 [kcal/mol]      -0.04348535 [kJ/mol]
  Total SAPT0                      -0.39974892 [mEh]      -0.25084623 [kcal/mol]      -1.04954063 [kJ/mol]
  Total SAPT2                      -0.42324925 [mEh]      -0.26559291 [kcal/mol]      -1.11124075 [kJ/mol]
  Total SAPT2+                     -0.36021763 [mEh]      -0.22603998 [kcal/mol]      -0.94575127 [kJ/mol]

  Special recipe for scaled SAPT0 (see Manual):
    Electrostatics sSAPT0          -0.00360534 [mEh]      -0.00226239 [kcal/mol]      -0.00946582 [kJ/mol]
    Exchange sSAPT0                 0.00095144 [mEh]       0.00059704 [kcal/mol]       0.00249801 [kJ/mol]
    Induction sSAPT0               -0.01390880 [mEh]      -0.00872790 [kcal/mol]      -0.03651754 [kJ/mol]
    Dispersion sSAPT0              -0.38318622 [mEh]      -0.24045298 [kcal/mol]      -1.00605528 [kJ/mol]
  Total sSAPT0                     -0.39974892 [mEh]      -0.25084623 [kcal/mol]      -1.04954063 [kJ/mol]
  --------------------------------------------------------------------------------------------------------

*** Psi4 exiting successfully. Buy a developer a beer!
