                               Psi4 1.4a2.dev224

  ==> Input File <==

--------------------------------------------------------------------------
#Generated by lconvert.py for sapt job

memory 50 GB

molecule  {
0 1
  C       0.825770    1.236530   -0.040250
  H       1.521010    2.063120   -0.082470
  C       1.300160   -0.062940    0.127260
  H       2.363660   -0.242260    0.207670
  C       0.403520   -1.128550    0.198250
  H       0.773750   -2.137430    0.324120
  C      -0.967810   -0.895190    0.103140
  H      -1.665210   -1.719980    0.160430
  C      -1.443510    0.404480   -0.062440
  H      -2.507510    0.585500   -0.124150
  C      -0.545750    1.468770   -0.136250
  H      -0.914220    2.477420   -0.267860
--
0 1
  N      -0.240460    0.574830    4.127340
  H      -0.613770    1.476600    3.864450
  C       1.151690    0.501850    4.259350
  O       1.842600    1.496270    4.114520
  C       1.630590   -0.832230    4.577460
  H       2.687640   -0.984450    4.711580
  C       0.750880   -1.846610    4.703680
  H       1.056800   -2.855030    4.940200
  N      -0.594370   -1.661580    4.533590
  H      -1.243120   -2.424140    4.632460
  C      -1.168820   -0.436780    4.234170
  O      -2.366600   -0.285950    4.092060
units angstrom
no_reorient
symmetry c1
}

set {
scf_type DF
basis aug-cc-pvtz
freeze_core True
guess SAD
}
energy('sapt2+')
--------------------------------------------------------------------------

  //              Dimer HF             //
    Molecular point group: c1
  Charge       = 0
  Multiplicity = 1
  Basis Set: AUG-CC-PVTZ
    Blend: AUG-CC-PVTZ
  Basis Set: (AUG-CC-PVTZ AUX)
    Blend: AUG-CC-PVTZ-JKFIT
  @DF-RHF Final Energy:  -643.40643705509024
    Total Energy =                       -643.4064370550902368
  //            Monomer A HF           //
    Molecular point group: c1
  Multiplicity = 1
  Basis Set: AUG-CC-PVTZ
    Blend: AUG-CC-PVTZ
  Basis Set: (AUG-CC-PVTZ AUX)
    Blend: AUG-CC-PVTZ-JKFIT
  @DF-RHF Final Energy:  -230.78131986338761
    Total Energy =                       -230.7813198633876368
  //            Monomer B HF           //
    Molecular point group: c1

    Geometry (in Angstrom), charge = 0, multiplicity = 1:

       Center              X                  Y                   Z               Mass
    ------------   -----------------  -----------------  -----------------  -----------------
      Gh(C)           0.801360770594     1.335107240370    -2.600438113260    12.000000000000
      Gh(H)           1.496600770594     2.161697240370    -2.642658113260     1.007825032230
      Gh(C)           1.275750770594     0.035637240370    -2.432928113260    12.000000000000
      Gh(H)           2.339250770594    -0.143682759630    -2.352518113260     1.007825032230
      Gh(C)           0.379110770594    -1.029972759630    -2.361938113260    12.000000000000
      Gh(H)           0.749340770594    -2.038852759630    -2.236068113260     1.007825032230
      Gh(C)          -0.992219229406    -0.796612759630    -2.457048113260    12.000000000000
      Gh(H)          -1.689619229406    -1.621402759630    -2.399758113260     1.007825032230
      Gh(C)          -1.467919229406     0.503057240370    -2.622628113260    12.000000000000
      Gh(H)          -2.531919229406     0.684077240370    -2.684338113260     1.007825032230
      Gh(C)          -0.570159229406     1.567347240370    -2.696438113260    12.000000000000
      Gh(H)          -0.938629229406     2.575997240370    -2.828048113260     1.007825032230
         N           -0.264869229406     0.673407240370     1.567151886740    14.003074004430
         H           -0.638179229406     1.575177240370     1.304261886740     1.007825032230
         C            1.127280770594     0.600427240370     1.699161886740    12.000000000000
         O            1.818190770594     1.594847240370     1.554331886740    15.994914619570
         C            1.606180770594    -0.733652759630     2.017271886740    12.000000000000
         H            2.663230770594    -0.885872759630     2.151391886740     1.007825032230
         C            0.726470770594    -1.748032759630     2.143491886740    12.000000000000
         H            1.032390770594    -2.756452759630     2.380011886740     1.007825032230
         N           -0.618779229406    -1.563002759630     1.973401886740    14.003074004430
         H           -1.267529229406    -2.325562759630     2.072271886740     1.007825032230
         C           -1.193229229406    -0.338202759630     1.673981886740    12.000000000000
         O           -2.391009229406    -0.187372759630     1.531871886740    15.994914619570

  Charge       = 0
  Multiplicity = 1
  Basis Set: AUG-CC-PVTZ
    Blend: AUG-CC-PVTZ
  Basis Set: (AUG-CC-PVTZ AUX)
    Blend: AUG-CC-PVTZ-JKFIT

    Orbital Energies [Eh]
    ---------------------

    Doubly Occupied:

       1A    -20.548158     2A    -20.542318     3A    -15.645113
       4A    -15.628769     5A    -11.419791     6A    -11.381553
       7A    -11.341299     8A    -11.255928     9A     -1.437425
      10A     -1.398778    11A     -1.314516    12A     -1.247833
      13A     -1.088947    14A     -0.934321    15A     -0.903394
      16A     -0.808105    17A     -0.766095    18A     -0.715636
      19A     -0.678573    20A     -0.670027    21A     -0.653610
      22A     -0.615632    23A     -0.602274    24A     -0.571544
      25A     -0.527045    26A     -0.484589    27A     -0.450331
      28A     -0.438154    29A     -0.369442

  @DF-RHF Final Energy:  -412.62468431126030

   => Energetics <=

    Nuclear Repulsion Energy =            357.1695279458450045
    One-Electron Energy =               -1270.7100098290175083
    Two-Electron Energy =                 500.9157975719122646
    Total Energy =                       -412.6246843112602960

  Dipole Moment: [D]
     X:     0.5831      Y:    -4.8706      Z:     1.0082     Total:     5.0079

    SAPT Results
  --------------------------------------------------------------------------------------------------------
    Electrostatics                 -0.80629473 [mEh]      -0.50595758 [kcal/mol]      -2.11692653 [kJ/mol]
      Elst10,r                     -1.05898300 [mEh]      -0.66452186 [kcal/mol]      -2.78035948 [kJ/mol]
      Elst12,r                      0.25268827 [mEh]       0.15856428 [kcal/mol]       0.66343296 [kJ/mol]

    Exchange                        0.94834827 [mEh]       0.59509752 [kcal/mol]       2.48988804 [kJ/mol]
      Exch10                        0.92585445 [mEh]       0.58098244 [kcal/mol]       2.43083052 [kJ/mol]
      Exch10(S^2)                   0.92570533 [mEh]       0.58088886 [kcal/mol]       2.43043901 [kJ/mol]
      Exch11(S^2)                   0.01951638 [mEh]       0.01224671 [kcal/mol]       0.05124025 [kJ/mol]
      Exch12(S^2)                   0.00297744 [mEh]       0.00186837 [kcal/mol]       0.00781727 [kJ/mol]

    Induction                      -0.26413161 [mEh]      -0.16574509 [kcal/mol]      -0.69347745 [kJ/mol]
      Ind20,r                      -0.65637910 [mEh]      -0.41188410 [kcal/mol]      -1.72332309 [kJ/mol]
      Ind22                         0.09552307 [mEh]       0.05994163 [kcal/mol]       0.25079578 [kJ/mol]
      Exch-Ind20,r                  0.41161720 [mEh]       0.25829369 [kcal/mol]       1.08070081 [kJ/mol]
      Exch-Ind22                   -0.05990279 [mEh]      -0.03758957 [kcal/mol]      -0.15727475 [kJ/mol]
      delta HF,r (2)               -0.05498999 [mEh]      -0.03450674 [kcal/mol]      -0.14437620 [kJ/mol]

    Dispersion                     -4.67014973 [mEh]      -2.93056320 [kcal/mol]     -12.26147643 [kJ/mol]
      Disp20                       -5.25334396 [mEh]      -3.29652310 [kcal/mol]     -13.79265266 [kJ/mol]
      Disp21                        1.64508202 [mEh]       1.03230455 [kcal/mol]       4.31916226 [kJ/mol]
      Disp22 (SDQ)                  0.02076428 [mEh]       0.01302978 [kcal/mol]       0.05451660 [kJ/mol]
      Disp22 (T)                   -1.22141248 [mEh]      -0.76644791 [kcal/mol]      -3.20681804 [kJ/mol]
      Est. Disp22 (T)              -1.29086217 [mEh]      -0.81002824 [kcal/mol]      -3.38915816 [kJ/mol]
      Exch-Disp20                   0.20821009 [mEh]       0.13065381 [kcal/mol]       0.54665552 [kJ/mol]

  Total HF                         -0.43288044 [mEh]      -0.27163658 [kcal/mol]      -1.13652744 [kJ/mol]
  Total SAPT0                      -5.47801431 [mEh]      -3.43750587 [kcal/mol]     -14.38252458 [kJ/mol]
  Total SAPT2                      -5.16721194 [mEh]      -3.24247444 [kcal/mol]     -13.56651307 [kJ/mol]
  Total SAPT2+                     -4.79222780 [mEh]      -3.00716835 [kcal/mol]     -12.58199237 [kJ/mol]

  Special recipe for scaled SAPT0 (see Manual):
    Electrostatics sSAPT0          -1.05898300 [mEh]      -0.66452186 [kcal/mol]      -2.78035948 [kJ/mol]
    Exchange sSAPT0                 0.92585445 [mEh]       0.58098244 [kcal/mol]       2.43083052 [kJ/mol]
    Induction sSAPT0               -0.29955294 [mEh]      -0.18797231 [kcal/mol]      -0.78647614 [kJ/mol]
    Dispersion sSAPT0              -5.04503323 [mEh]      -3.16580615 [kcal/mol]     -13.24573291 [kJ/mol]
  Total sSAPT0                     -5.47771472 [mEh]      -3.43731788 [kcal/mol]     -14.38173802 [kJ/mol]
  --------------------------------------------------------------------------------------------------------

*** Psi4 exiting successfully. Buy a developer a beer!
