                               Psi4 1.4a2.dev224

  ==> Input File <==

--------------------------------------------------------------------------
#Generated by lconvert.py for sapt job

memory 50 GB

molecule  {
0 1
  C       0.825770    1.236530   -0.040250
  H       1.521010    2.063120   -0.082470
  C       1.300160   -0.062940    0.127260
  H       2.363660   -0.242260    0.207670
  C       0.403520   -1.128550    0.198250
  H       0.773750   -2.137430    0.324120
  C      -0.967810   -0.895190    0.103140
  H      -1.665210   -1.719980    0.160430
  C      -1.443510    0.404480   -0.062440
  H      -2.507510    0.585500   -0.124150
  C      -0.545750    1.468770   -0.136250
  H      -0.914220    2.477420   -0.267860
--
0 1
  N      -0.169520    0.375420    6.000250
  H      -0.542820    1.277180    5.737350
  C       1.222630    0.302430    6.132260
  O       1.913540    1.296860    5.987420
  C       1.701530   -1.031640    6.450370
  H       2.758580   -1.183860    6.584490
  C       0.821820   -2.046030    6.576590
  H       1.127750   -3.054450    6.813110
  N      -0.523420   -1.860990    6.406490
  H      -1.172170   -2.623550    6.505360
  C      -1.097870   -0.636190    6.107080
  O      -2.295660   -0.485370    5.964970
units angstrom
no_reorient
symmetry c1
}

set {
scf_type DF
basis aug-cc-pvtz
freeze_core True
guess SAD
}
energy('sapt2+')
--------------------------------------------------------------------------

  //              Dimer HF             //
    Molecular point group: c1
  Charge       = 0
  Multiplicity = 1
  Basis Set: AUG-CC-PVTZ
    Blend: AUG-CC-PVTZ
  Basis Set: (AUG-CC-PVTZ AUX)
    Blend: AUG-CC-PVTZ-JKFIT
  @DF-RHF Final Energy:  -643.40583875060361
    Total Energy =                       -643.4058387506036070
  //            Monomer A HF           //
    Molecular point group: c1
  Multiplicity = 1
  Basis Set: AUG-CC-PVTZ
    Blend: AUG-CC-PVTZ
  Basis Set: (AUG-CC-PVTZ AUX)
    Blend: AUG-CC-PVTZ-JKFIT
  @DF-RHF Final Energy:  -230.78121789726728
    Total Energy =                       -230.7812178972673109
  //            Monomer B HF           //
    Molecular point group: c1

    Geometry (in Angstrom), charge = 0, multiplicity = 1:

       Center              X                  Y                   Z               Mass
    ------------   -----------------  -----------------  -----------------  -----------------
      Gh(C)           0.759548130215     1.452639110803    -3.704305221482    12.000000000000
      Gh(H)           1.454788130215     2.279229110803    -3.746525221482     1.007825032230
      Gh(C)           1.233938130215     0.153169110803    -3.536795221482    12.000000000000
      Gh(H)           2.297438130215    -0.026150889197    -3.456385221482     1.007825032230
      Gh(C)           0.337298130215    -0.912440889197    -3.465805221482    12.000000000000
      Gh(H)           0.707528130215    -1.921320889197    -3.339935221482     1.007825032230
      Gh(C)          -1.034031869785    -0.679080889197    -3.560915221482    12.000000000000
      Gh(H)          -1.731431869785    -1.503870889197    -3.503625221482     1.007825032230
      Gh(C)          -1.509731869785     0.620589110803    -3.726495221482    12.000000000000
      Gh(H)          -2.573731869785     0.801609110803    -3.788205221482     1.007825032230
      Gh(C)          -0.611971869785     1.684879110803    -3.800305221482    12.000000000000
      Gh(H)          -0.980441869785     2.693529110803    -3.931915221482     1.007825032230
         N           -0.235741869785     0.591529110803     2.336194778518    14.003074004430
         H           -0.609041869785     1.493289110803     2.073294778518     1.007825032230
         C            1.156408130215     0.518539110803     2.468204778518    12.000000000000
         O            1.847318130215     1.512969110803     2.323364778518    15.994914619570
         C            1.635308130215    -0.815530889197     2.786314778518    12.000000000000
         H            2.692358130215    -0.967750889197     2.920434778518     1.007825032230
         C            0.755598130215    -1.829920889197     2.912534778518    12.000000000000
         H            1.061528130215    -2.838340889197     3.149054778518     1.007825032230
         N           -0.589641869785    -1.644880889197     2.742434778518    14.003074004430
         H           -1.238391869785    -2.407440889197     2.841304778518     1.007825032230
         C           -1.164091869785    -0.420080889197     2.443024778518    12.000000000000
         O           -2.361881869785    -0.269260889197     2.300914778518    15.994914619570

  Charge       = 0
  Multiplicity = 1
  Basis Set: AUG-CC-PVTZ
    Blend: AUG-CC-PVTZ
  Basis Set: (AUG-CC-PVTZ AUX)
    Blend: AUG-CC-PVTZ-JKFIT

    Orbital Energies [Eh]
    ---------------------

    Doubly Occupied:

       1A    -20.548196     2A    -20.542360     3A    -15.645136
       4A    -15.628793     5A    -11.419818     6A    -11.381580
       7A    -11.341324     8A    -11.255951     9A     -1.437444
      10A     -1.398800    11A     -1.314539    12A     -1.247857
      13A     -1.088967    14A     -0.934347    15A     -0.903416
      16A     -0.808128    17A     -0.766119    18A     -0.715662
      19A     -0.678593    20A     -0.670042    21A     -0.653629
      22A     -0.615650    23A     -0.602297    24A     -0.571556
      25A     -0.527056    26A     -0.484610    27A     -0.450357
      28A     -0.438164    29A     -0.369451

  @DF-RHF Final Energy:  -412.62456384399962

   => Energetics <=

    Nuclear Repulsion Energy =            357.1695742454470519
    One-Electron Energy =               -1270.7085715126729610
    Two-Electron Energy =                 500.9144334232262850
    Total Energy =                       -412.6245638439996242

  Dipole Moment: [D]
     X:     0.5832      Y:    -4.8716      Z:     1.0075     Total:     5.0088

    SAPT Results
  --------------------------------------------------------------------------------------------------------
    Electrostatics                 -0.00175002 [mEh]      -0.00109815 [kcal/mol]      -0.00459467 [kJ/mol]
      Elst10,r                     -0.03058834 [mEh]      -0.01919447 [kcal/mol]      -0.08030967 [kJ/mol]
      Elst12,r                      0.02883832 [mEh]       0.01809632 [kcal/mol]       0.07571499 [kJ/mol]

    Exchange                        0.00226207 [mEh]       0.00141947 [kcal/mol]       0.00593907 [kJ/mol]
      Exch10                        0.00224810 [mEh]       0.00141070 [kcal/mol]       0.00590238 [kJ/mol]
      Exch10(S^2)                   0.00224810 [mEh]       0.00141070 [kcal/mol]       0.00590238 [kJ/mol]
      Exch11(S^2)                  -0.00004897 [mEh]      -0.00003073 [kcal/mol]      -0.00012856 [kJ/mol]
      Exch12(S^2)                   0.00006294 [mEh]       0.00003950 [kcal/mol]       0.00016525 [kJ/mol]

    Induction                      -0.02050525 [mEh]      -0.01286724 [kcal/mol]      -0.05383653 [kJ/mol]
      Ind20,r                      -0.02977249 [mEh]      -0.01868252 [kcal/mol]      -0.07816767 [kJ/mol]
      Ind22                         0.00846272 [mEh]       0.00531043 [kcal/mol]       0.02221886 [kJ/mol]
      Exch-Ind20,r                  0.00105144 [mEh]       0.00065979 [kcal/mol]       0.00276056 [kJ/mol]
      Exch-Ind22                   -0.00029887 [mEh]      -0.00018754 [kcal/mol]      -0.00078468 [kJ/mol]
      delta HF,r (2)                0.00005195 [mEh]       0.00003260 [kcal/mol]       0.00013640 [kJ/mol]

    Dispersion                     -0.55542053 [mEh]      -0.34853164 [kcal/mol]      -1.45825640 [kJ/mol]
      Disp20                       -0.61672634 [mEh]      -0.38700162 [kcal/mol]      -1.61921479 [kJ/mol]
      Disp21                        0.22168653 [mEh]       0.13911040 [kcal/mol]       0.58203790 [kJ/mol]
      Disp22 (SDQ)                 -0.00501558 [mEh]      -0.00314733 [kcal/mol]      -0.01316841 [kJ/mol]
      Disp22 (T)                   -0.15316114 [mEh]      -0.09611006 [kcal/mol]      -0.40212451 [kJ/mol]
      Est. Disp22 (T)              -0.15620416 [mEh]      -0.09801959 [kcal/mol]      -0.41011397 [kJ/mol]
      Exch-Disp20                   0.00083903 [mEh]       0.00052650 [kcal/mol]       0.00220288 [kJ/mol]

  Total HF                         -0.05700934 [mEh]      -0.03577390 [kcal/mol]      -0.14967799 [kJ/mol]
  Total SAPT0                      -0.67289665 [mEh]      -0.42224902 [kcal/mol]      -1.76668991 [kJ/mol]
  Total SAPT2                      -0.63588051 [mEh]      -0.39902104 [kcal/mol]      -1.66950404 [kJ/mol]
  Total SAPT2+                     -0.57541373 [mEh]      -0.36107757 [kcal/mol]      -1.51074853 [kJ/mol]

  Special recipe for scaled SAPT0 (see Manual):
    Electrostatics sSAPT0          -0.03058834 [mEh]      -0.01919447 [kcal/mol]      -0.08030967 [kJ/mol]
    Exchange sSAPT0                 0.00224810 [mEh]       0.00141070 [kcal/mol]       0.00590238 [kJ/mol]
    Induction sSAPT0               -0.02866910 [mEh]      -0.01799013 [kcal/mol]      -0.07527071 [kJ/mol]
    Dispersion sSAPT0              -0.61588731 [mEh]      -0.38647512 [kcal/mol]      -1.61701191 [kJ/mol]
  Total sSAPT0                     -0.67289665 [mEh]      -0.42224902 [kcal/mol]      -1.76668991 [kJ/mol]
  --------------------------------------------------------------------------------------------------------

*** Psi4 exiting successfully. Buy a developer a beer!
