                               Psi4 1.4a2.dev224

  ==> Input File <==

--------------------------------------------------------------------------
#Generated by lconvert.py for sapt job

memory 50 GB

molecule  {
0 1
  C       0.825770    1.236530   -0.040250
  H       1.521010    2.063120   -0.082470
  C       1.300160   -0.062940    0.127260
  H       2.363660   -0.242260    0.207670
  C       0.403520   -1.128550    0.198250
  H       0.773750   -2.137430    0.324120
  C      -0.967810   -0.895190    0.103140
  H      -1.665210   -1.719980    0.160430
  C      -1.443510    0.404480   -0.062440
  H      -2.507510    0.585500   -0.124150
  C      -0.545750    1.468770   -0.136250
  H      -0.914220    2.477420   -0.267860
--
0 1
  N      -0.204990    0.475130    5.063790
  H      -0.578300    1.376890    4.800900
  C       1.187160    0.402140    5.195810
  O       1.878070    1.396560    5.050970
  C       1.666060   -0.931940    5.513920
  H       2.723110   -1.084150    5.648040
  C       0.786350   -1.946320    5.640130
  H       1.092280   -2.954740    5.876660
  N      -0.558900   -1.761290    5.470040
  H      -1.207640   -2.523850    5.568910
  C      -1.133350   -0.536480    5.170630
  O      -2.331130   -0.385660    5.028510
units angstrom
no_reorient
symmetry c1
}

set {
scf_type DF
basis aug-cc-pvtz
freeze_core True
guess SAD
}
energy('sapt2+')
--------------------------------------------------------------------------

  //              Dimer HF             //
    Molecular point group: c1
  Charge       = 0
  Multiplicity = 1
  Basis Set: AUG-CC-PVTZ
    Blend: AUG-CC-PVTZ
  Basis Set: (AUG-CC-PVTZ AUX)
    Blend: AUG-CC-PVTZ-JKFIT
  @DF-RHF Final Energy:  -643.40609180022943
    Total Energy =                       -643.4060918002294329
  //            Monomer A HF           //
    Molecular point group: c1
  Multiplicity = 1
  Basis Set: AUG-CC-PVTZ
    Blend: AUG-CC-PVTZ
  Basis Set: (AUG-CC-PVTZ AUX)
    Blend: AUG-CC-PVTZ-JKFIT
  @DF-RHF Final Energy:  -230.78124728368149
    Total Energy =                       -230.7812472836814663
  //            Monomer B HF           //
    Molecular point group: c1

    Geometry (in Angstrom), charge = 0, multiplicity = 1:

       Center              X                  Y                   Z               Mass
    ------------   -----------------  -----------------  -----------------  -----------------
      Gh(C)           0.780455107917     1.393873596341    -3.152371562614    12.000000000000
      Gh(H)           1.475695107917     2.220463596341    -3.194591562614     1.007825032230
      Gh(C)           1.254845107917     0.094403596341    -2.984861562614    12.000000000000
      Gh(H)           2.318345107917    -0.084916403659    -2.904451562614     1.007825032230
      Gh(C)           0.358205107917    -0.971206403659    -2.913871562614    12.000000000000
      Gh(H)           0.728435107917    -1.980086403659    -2.788001562614     1.007825032230
      Gh(C)          -1.013124892083    -0.737846403659    -3.008981562614    12.000000000000
      Gh(H)          -1.710524892083    -1.562636403659    -2.951691562614     1.007825032230
      Gh(C)          -1.488824892083     0.561823596341    -3.174561562614    12.000000000000
      Gh(H)          -2.552824892083     0.742843596341    -3.236271562614     1.007825032230
      Gh(C)          -0.591064892083     1.626113596341    -3.248371562614    12.000000000000
      Gh(H)          -0.959534892083     2.634763596341    -3.379981562614     1.007825032230
         N           -0.250304892083     0.632473596341     1.951668437386    14.003074004430
         H           -0.623614892083     1.534233596341     1.688778437386     1.007825032230
         C            1.141845107917     0.559483596341     2.083688437386    12.000000000000
         O            1.832755107917     1.553903596341     1.938848437386    15.994914619570
         C            1.620745107917    -0.774596403659     2.401798437386    12.000000000000
         H            2.677795107917    -0.926806403659     2.535918437386     1.007825032230
         C            0.741035107917    -1.788976403659     2.528008437386    12.000000000000
         H            1.046965107917    -2.797396403659     2.764538437386     1.007825032230
         N           -0.604214892083    -1.603946403659     2.357918437386    14.003074004430
         H           -1.252954892083    -2.366506403659     2.456788437386     1.007825032230
         C           -1.178664892083    -0.379136403659     2.058508437386    12.000000000000
         O           -2.376444892083    -0.228316403659     1.916388437386    15.994914619570

  Charge       = 0
  Multiplicity = 1
  Basis Set: AUG-CC-PVTZ
    Blend: AUG-CC-PVTZ
  Basis Set: (AUG-CC-PVTZ AUX)
    Blend: AUG-CC-PVTZ-JKFIT

    Orbital Energies [Eh]
    ---------------------

    Doubly Occupied:

       1A    -20.548189     2A    -20.542352     3A    -15.645129
       4A    -15.628788     5A    -11.419813     6A    -11.381574
       7A    -11.341316     8A    -11.255946     9A     -1.437442
      10A     -1.398800    11A     -1.314532    12A     -1.247851
      13A     -1.088962    14A     -0.934337    15A     -0.903410
      16A     -0.808123    17A     -0.766112    18A     -0.715654
      19A     -0.678591    20A     -0.670037    21A     -0.653627
      22A     -0.615649    23A     -0.602292    24A     -0.571556
      25A     -0.527054    26A     -0.484606    27A     -0.450352
      28A     -0.438163    29A     -0.369450

  @DF-RHF Final Energy:  -412.62459299026369

   => Energetics <=

    Nuclear Repulsion Energy =            357.1693528130224422
    One-Electron Energy =               -1270.7084579823472268
    Two-Electron Energy =                 500.9145121790610915
    Total Energy =                       -412.6245929902636931

  Dipole Moment: [D]
     X:     0.5833      Y:    -4.8713      Z:     1.0079     Total:     5.0086

    SAPT Results
  --------------------------------------------------------------------------------------------------------
    Electrostatics                 -0.12567353 [mEh]      -0.07886133 [kcal/mol]      -0.32995582 [kJ/mol]
      Elst10,r                     -0.21917192 [mEh]      -0.13753245 [kcal/mol]      -0.57543579 [kJ/mol]
      Elst12,r                      0.09349838 [mEh]       0.05867112 [kcal/mol]       0.24547997 [kJ/mol]

    Exchange                        0.04755157 [mEh]       0.02983906 [kcal/mol]       0.12484662 [kJ/mol]
      Exch10                        0.04639358 [mEh]       0.02911241 [kcal/mol]       0.12180632 [kJ/mol]
      Exch10(S^2)                   0.04639331 [mEh]       0.02911224 [kcal/mol]       0.12180561 [kJ/mol]
      Exch11(S^2)                   0.00001852 [mEh]       0.00001162 [kcal/mol]       0.00004862 [kJ/mol]
      Exch12(S^2)                   0.00113947 [mEh]       0.00071503 [kcal/mol]       0.00299169 [kJ/mol]

    Induction                      -0.05964073 [mEh]      -0.03742512 [kcal/mol]      -0.15658672 [kJ/mol]
      Ind20,r                      -0.09526797 [mEh]      -0.05978155 [kcal/mol]      -0.25012601 [kJ/mol]
      Ind22                         0.02395948 [mEh]       0.01503480 [kcal/mol]       0.06290562 [kJ/mol]
      Exch-Ind20,r                  0.01929366 [mEh]       0.01210696 [kcal/mol]       0.05065550 [kJ/mol]
      Exch-Ind22                   -0.00485227 [mEh]      -0.00304485 [kcal/mol]      -0.01273964 [kJ/mol]
      delta HF,r (2)               -0.00277364 [mEh]      -0.00174048 [kcal/mol]      -0.00728218 [kJ/mol]

    Dispersion                     -1.47215530 [mEh]      -0.92379140 [kcal/mol]      -3.86514321 [kJ/mol]
      Disp20                       -1.62789694 [mEh]      -1.02152075 [kcal/mol]      -4.27404283 [kJ/mol]
      Disp21                        0.55652842 [mEh]       0.34922686 [kcal/mol]       1.46116517 [kJ/mol]
      Disp22 (SDQ)                 -0.00589135 [mEh]      -0.00369688 [kcal/mol]      -0.01546774 [kJ/mol]
      Disp22 (T)                   -0.39379975 [mEh]      -0.24711308 [kcal/mol]      -1.03392111 [kJ/mol]
      Est. Disp22 (T)              -0.40855601 [mEh]      -0.25637276 [kcal/mol]      -1.07266365 [kJ/mol]
      Exch-Disp20                   0.01366057 [mEh]       0.00857214 [kcal/mol]       0.03586583 [kJ/mol]

  Total HF                         -0.25152628 [mEh]      -0.15783513 [kcal/mol]      -0.66038217 [kJ/mol]
  Total SAPT0                      -1.86576265 [mEh]      -1.17078374 [kcal/mol]      -4.89855916 [kJ/mol]
  Total SAPT2                      -1.75199906 [mEh]      -1.09939601 [kcal/mol]      -4.59987291 [kJ/mol]
  Total SAPT2+                     -1.60991800 [mEh]      -1.01023880 [kcal/mol]      -4.22683913 [kJ/mol]

  Special recipe for scaled SAPT0 (see Manual):
    Electrostatics sSAPT0          -0.21917192 [mEh]      -0.13753245 [kcal/mol]      -0.57543579 [kJ/mol]
    Exchange sSAPT0                 0.04639358 [mEh]       0.02911241 [kcal/mol]       0.12180632 [kJ/mol]
    Induction sSAPT0               -0.07874761 [mEh]      -0.04941487 [kcal/mol]      -0.20675181 [kJ/mol]
    Dispersion sSAPT0              -1.61423613 [mEh]      -1.01294846 [kcal/mol]      -4.23817637 [kJ/mol]
  Total sSAPT0                     -1.86576208 [mEh]      -1.17078338 [kcal/mol]      -4.89855766 [kJ/mol]
  --------------------------------------------------------------------------------------------------------

*** Psi4 exiting successfully. Buy a developer a beer!
