                               Psi4 1.4a2.dev224

  ==> Input File <==

--------------------------------------------------------------------------
#Generated by lconvert.py for sapt job

memory 50 GB

molecule  {
0 1
  N       1.210760    0.028680    0.329710
  C       0.611940   -1.158450    0.153450
  H       1.251480   -2.029520    0.219290
  C      -0.751310   -1.308650   -0.088830
  H      -1.170420   -2.296870   -0.213380
  C      -1.547870   -0.169940   -0.156470
  H      -2.611010   -0.245960   -0.338760
  C      -0.943620    1.070640    0.019820
  H      -1.518810    1.984500   -0.011640
  C       0.427720    1.116110    0.257350
  H       0.924700    2.068050    0.397550
--
0 1
  N      -0.626580   -0.234360    4.268140
  H      -1.521470   -0.666220    4.083540
  C      -0.626320    1.163450    4.361150
  O      -1.666210    1.791650    4.246300
  C       0.693170    1.722530    4.588720
  H       0.794490    2.789750    4.684580
  C       1.763040    0.903840    4.660240
  H       2.766920    1.272500    4.808660
  N       1.644980   -0.453450    4.547680
  H       2.458420   -1.045640    4.539510
  C       0.444540   -1.100690    4.321300
  O       0.352400   -2.306110    4.187720
units angstrom
no_reorient
symmetry c1
}

set {
scf_type DF
basis aug-cc-pvtz
freeze_core True
guess SAD
}
energy('sapt2+')
--------------------------------------------------------------------------

  //              Dimer HF             //
    Molecular point group: c1
  Charge       = 0
  Multiplicity = 1
  Basis Set: AUG-CC-PVTZ
    Blend: AUG-CC-PVTZ
  Basis Set: (AUG-CC-PVTZ AUX)
    Blend: AUG-CC-PVTZ-JKFIT
  @DF-RHF Final Energy:  -659.40524141355058
    Total Energy =                       -659.4052414135505842
  //            Monomer A HF           //
    Molecular point group: c1
  Multiplicity = 1
  Basis Set: AUG-CC-PVTZ
    Blend: AUG-CC-PVTZ
  Basis Set: (AUG-CC-PVTZ AUX)
    Blend: AUG-CC-PVTZ-JKFIT
  @DF-RHF Final Energy:  -246.77863327717878
    Total Energy =                       -246.7786332771787556
  //            Monomer B HF           //
    Molecular point group: c1

    Geometry (in Angstrom), charge = 0, multiplicity = 1:

       Center              X                  Y                   Z               Mass
    ------------   -----------------  -----------------  -----------------  -----------------
      Gh(N)           1.145645739793    -0.030211690529    -2.280226751661    14.003074004430
      Gh(C)           0.546825739793    -1.217341690529    -2.456486751661    12.000000000000
      Gh(H)           1.186365739793    -2.088411690529    -2.390646751661     1.007825032230
      Gh(C)          -0.816424260207    -1.367541690529    -2.698766751661    12.000000000000
      Gh(H)          -1.235534260207    -2.355761690529    -2.823316751661     1.007825032230
      Gh(C)          -1.612984260207    -0.228831690529    -2.766406751661    12.000000000000
      Gh(H)          -2.676124260207    -0.304851690529    -2.948696751661     1.007825032230
      Gh(C)          -1.008734260207     1.011748309471    -2.590116751661    12.000000000000
      Gh(H)          -1.583924260207     1.925608309471    -2.621576751661     1.007825032230
      Gh(C)           0.362605739793     1.057218309471    -2.352586751661    12.000000000000
      Gh(H)           0.859585739793     2.009158309471    -2.212386751661     1.007825032230
         N           -0.691694260207    -0.293251690529     1.658203248339    14.003074004430
         H           -1.586584260207    -0.725111690529     1.473603248339     1.007825032230
         C           -0.691434260207     1.104558309471     1.751213248339    12.000000000000
         O           -1.731324260207     1.732758309471     1.636363248339    15.994914619570
         C            0.628055739793     1.663638309471     1.978783248339    12.000000000000
         H            0.729375739793     2.730858309471     2.074643248339     1.007825032230
         C            1.697925739793     0.844948309471     2.050303248339    12.000000000000
         H            2.701805739793     1.213608309471     2.198723248339     1.007825032230
         N            1.579865739793    -0.512341690529     1.937743248339    14.003074004430
         H            2.393305739793    -1.104531690529     1.929573248339     1.007825032230
         C            0.379425739793    -1.159581690529     1.711363248339    12.000000000000
         O            0.287285739793    -2.365001690529     1.577783248339    15.994914619570

  Charge       = 0
  Multiplicity = 1
  Basis Set: AUG-CC-PVTZ
    Blend: AUG-CC-PVTZ
  Basis Set: (AUG-CC-PVTZ AUX)
    Blend: AUG-CC-PVTZ-JKFIT

    Orbital Energies [Eh]
    ---------------------

    Doubly Occupied:

       1A    -20.547956     2A    -20.542085     3A    -15.645830
       4A    -15.628269     5A    -11.419674     6A    -11.381408
       7A    -11.341611     8A    -11.256233     9A     -1.437240
      10A     -1.398073    11A     -1.315539    12A     -1.247341
      13A     -1.089602    14A     -0.935446    15A     -0.903061
      16A     -0.808495    17A     -0.766559    18A     -0.715595
      19A     -0.678222    20A     -0.670516    21A     -0.653589
      22A     -0.615343    23A     -0.602495    24A     -0.571464
      25A     -0.527139    26A     -0.484674    27A     -0.450053
      28A     -0.437598    29A     -0.369871

  @DF-RHF Final Energy:  -412.62452201187796

   => Energetics <=

    Nuclear Repulsion Energy =            357.2355606279348876
    One-Electron Energy =               -1270.8381825091116752
    Two-Electron Energy =                 500.9780998692988305
    Total Energy =                       -412.6245220118779571

  Dipole Moment: [D]
     X:     4.9267      Y:     0.8952      Z:     0.6748     Total:     5.0526

    SAPT Results
  --------------------------------------------------------------------------------------------------------
    Electrostatics                 -1.99901147 [mEh]      -1.25439863 [kcal/mol]      -5.24840388 [kJ/mol]
      Elst10,r                     -2.47209428 [mEh]      -1.55126258 [kcal/mol]      -6.49048264 [kJ/mol]
      Elst12,r                      0.47308282 [mEh]       0.29686395 [kcal/mol]       1.24207876 [kJ/mol]

    Exchange                        0.70322489 [mEh]       0.44128028 [kcal/mol]       1.84631670 [kJ/mol]
      Exch10                        0.67345870 [mEh]       0.42260171 [kcal/mol]       1.76816558 [kJ/mol]
      Exch10(S^2)                   0.67339508 [mEh]       0.42256179 [kcal/mol]       1.76799853 [kJ/mol]
      Exch11(S^2)                   0.01255285 [mEh]       0.00787703 [kcal/mol]       0.03295751 [kJ/mol]
      Exch12(S^2)                   0.01721334 [mEh]       0.01080153 [kcal/mol]       0.04519362 [kJ/mol]

    Induction                      -0.25014296 [mEh]      -0.15696708 [kcal/mol]      -0.65675026 [kJ/mol]
      Ind20,r                      -0.47858191 [mEh]      -0.30031468 [kcal/mol]      -1.25651662 [kJ/mol]
      Ind22                         0.07636762 [mEh]       0.04792141 [kcal/mol]       0.20050316 [kJ/mol]
      Exch-Ind20,r                  0.24454168 [mEh]       0.15345222 [kcal/mol]       0.64204409 [kJ/mol]
      Exch-Ind22                   -0.03902167 [mEh]      -0.02448647 [kcal/mol]      -0.10245139 [kJ/mol]
      delta HF,r (2)               -0.05344868 [mEh]      -0.03353956 [kcal/mol]      -0.14032950 [kJ/mol]

    Dispersion                     -4.22390729 [mEh]      -2.65054184 [kcal/mol]     -11.08986707 [kJ/mol]
      Disp20                       -4.67687371 [mEh]      -2.93478256 [kcal/mol]     -12.27913023 [kJ/mol]
      Disp21                        1.51873231 [mEh]       0.95301891 [kcal/mol]       3.98743112 [kJ/mol]
      Disp22 (SDQ)                 -0.05126696 [mEh]      -0.03217051 [kcal/mol]      -0.13460139 [kJ/mol]
      Disp22 (T)                   -1.10412947 [mEh]      -0.69285171 [kcal/mol]      -2.89889153 [kJ/mol]
      Est. Disp22 (T)              -1.16263738 [mEh]      -0.72956597 [kcal/mol]      -3.05250403 [kJ/mol]
      Exch-Disp20                   0.14813845 [mEh]       0.09295828 [kcal/mol]       0.38893746 [kJ/mol]

  Total HF                         -2.08612449 [mEh]      -1.30906288 [kcal/mol]      -5.47711910 [kJ/mol]
  Total SAPT0                      -6.61485975 [mEh]      -4.15088716 [kcal/mol]     -17.36731187 [kJ/mol]
  Total SAPT2                      -6.07466479 [mEh]      -3.81190971 [kcal/mol]     -15.94903021 [kJ/mol]
  Total SAPT2+                     -5.76983683 [mEh]      -3.62062727 [kcal/mol]     -15.14870452 [kJ/mol]

  Special recipe for scaled SAPT0 (see Manual):
    Electrostatics sSAPT0          -2.47209428 [mEh]      -1.55126258 [kcal/mol]      -6.49048264 [kJ/mol]
    Exchange sSAPT0                 0.67345870 [mEh]       0.42260171 [kcal/mol]       1.76816558 [kJ/mol]
    Induction sSAPT0               -0.28741959 [mEh]      -0.18035852 [kcal/mol]      -0.75462003 [kJ/mol]
    Dispersion sSAPT0              -4.52869326 [mEh]      -2.84179792 [kcal/mol]     -11.89008251 [kJ/mol]
  Total sSAPT0                     -6.61474843 [mEh]      -4.15081731 [kcal/mol]     -17.36701961 [kJ/mol]
  --------------------------------------------------------------------------------------------------------

*** Psi4 exiting successfully. Buy a developer a beer!
