                               Psi4 1.4a2.dev224

  ==> Input File <==

--------------------------------------------------------------------------
#Generated by lconvert.py for sapt job

memory 50 GB

molecule  {
0 1
  N       1.210760    0.028680    0.329710
  C       0.611940   -1.158450    0.153450
  H       1.251480   -2.029520    0.219290
  C      -0.751310   -1.308650   -0.088830
  H      -1.170420   -2.296870   -0.213380
  C      -1.547870   -0.169940   -0.156470
  H      -2.611010   -0.245960   -0.338760
  C      -0.943620    1.070640    0.019820
  H      -1.518810    1.984500   -0.011640
  C       0.427720    1.116110    0.257350
  H       0.924700    2.068050    0.397550
--
0 1
  N      -0.453650   -0.135330    6.206630
  H      -1.348540   -0.567190    6.022030
  C      -0.453390    1.262490    6.299640
  O      -1.493270    1.890680    6.184790
  C       0.866100    1.821570    6.527200
  H       0.967420    2.888790    6.623070
  C       1.935980    1.002870    6.598720
  H       2.939860    1.371540    6.747150
  N       1.817910   -0.354420    6.486170
  H       2.631350   -0.946610    6.478000
  C       0.617470   -1.001650    6.259790
  O       0.525330   -2.207070    6.126210
units angstrom
no_reorient
symmetry c1
}

set {
scf_type DF
basis aug-cc-pvtz
freeze_core True
guess SAD
}
energy('sapt2+')
--------------------------------------------------------------------------

  //              Dimer HF             //
    Molecular point group: c1
  Charge       = 0
  Multiplicity = 1
  Basis Set: AUG-CC-PVTZ
    Blend: AUG-CC-PVTZ
  Basis Set: (AUG-CC-PVTZ AUX)
    Blend: AUG-CC-PVTZ-JKFIT
  @DF-RHF Final Energy:  -659.40373649445837
    Total Energy =                       -659.4037364944583715
  //            Monomer A HF           //
    Molecular point group: c1
  Multiplicity = 1
  Basis Set: AUG-CC-PVTZ
    Blend: AUG-CC-PVTZ
  Basis Set: (AUG-CC-PVTZ AUX)
    Blend: AUG-CC-PVTZ-JKFIT
  @DF-RHF Final Energy:  -246.77854358859196
    Total Energy =                       -246.7785435885919583
  //            Monomer B HF           //
    Molecular point group: c1

    Geometry (in Angstrom), charge = 0, multiplicity = 1:

       Center              X                  Y                   Z               Mass
    ------------   -----------------  -----------------  -----------------  -----------------
      Gh(N)           1.044252427503    -0.088277487249    -3.416795087180    14.003074004430
      Gh(C)           0.445432427503    -1.275407487249    -3.593055087180    12.000000000000
      Gh(H)           1.084972427503    -2.146477487249    -3.527215087180     1.007825032230
      Gh(C)          -0.917817572497    -1.425607487249    -3.835335087180    12.000000000000
      Gh(H)          -1.336927572497    -2.413827487249    -3.959885087180     1.007825032230
      Gh(C)          -1.714377572497    -0.286897487249    -3.902975087180    12.000000000000
      Gh(H)          -2.777517572497    -0.362917487249    -4.085265087180     1.007825032230
      Gh(C)          -1.110127572497     0.953682512751    -3.726685087180    12.000000000000
      Gh(H)          -1.685317572497     1.867542512751    -3.758145087180     1.007825032230
      Gh(C)           0.261212427503     0.999152512751    -3.489155087180    12.000000000000
      Gh(H)           0.758192427503     1.951092512751    -3.348955087180     1.007825032230
         N           -0.620157572497    -0.252287487249     2.460124912820    14.003074004430
         H           -1.515047572497    -0.684147487249     2.275524912820     1.007825032230
         C           -0.619897572497     1.145532512751     2.553134912820    12.000000000000
         O           -1.659777572497     1.773722512751     2.438284912820    15.994914619570
         C            0.699592427503     1.704612512751     2.780694912820    12.000000000000
         H            0.800912427503     2.771832512751     2.876564912820     1.007825032230
         C            1.769472427503     0.885912512751     2.852214912820    12.000000000000
         H            2.773352427503     1.254582512751     3.000644912820     1.007825032230
         N            1.651402427503    -0.471377487249     2.739664912820    14.003074004430
         H            2.464842427503    -1.063567487249     2.731494912820     1.007825032230
         C            0.450962427503    -1.118607487249     2.513284912820    12.000000000000
         O            0.358822427503    -2.324027487249     2.379704912820    15.994914619570

  Charge       = 0
  Multiplicity = 1
  Basis Set: AUG-CC-PVTZ
    Blend: AUG-CC-PVTZ
  Basis Set: (AUG-CC-PVTZ AUX)
    Blend: AUG-CC-PVTZ-JKFIT

    Orbital Energies [Eh]
    ---------------------

    Doubly Occupied:

       1A    -20.547993     2A    -20.542130     3A    -15.645851
       4A    -15.628290     5A    -11.419697     6A    -11.381433
       7A    -11.341640     8A    -11.256260     9A     -1.437263
      10A     -1.398110    11A     -1.315561    12A     -1.247363
      13A     -1.089620    14A     -0.935468    15A     -0.903079
      16A     -0.808514    17A     -0.766581    18A     -0.715616
      19A     -0.678244    20A     -0.670531    21A     -0.653609
      22A     -0.615366    23A     -0.602520    24A     -0.571482
      25A     -0.527147    26A     -0.484698    27A     -0.450081
      28A     -0.437610    29A     -0.369879

  @DF-RHF Final Energy:  -412.62440774481320

   => Energetics <=

    Nuclear Repulsion Energy =            357.2357563784163403
    One-Electron Energy =               -1270.8370426750450406
    Two-Electron Energy =                 500.9768785518155028
    Total Energy =                       -412.6244077448131975

  Dipole Moment: [D]
     X:     4.9273      Y:     0.8955      Z:     0.6741     Total:     5.0532

    SAPT Results
  --------------------------------------------------------------------------------------------------------
    Electrostatics                 -0.61487082 [mEh]      -0.38583726 [kcal/mol]      -1.61434311 [kJ/mol]
      Elst10,r                     -0.75490542 [mEh]      -0.47371030 [kcal/mol]      -1.98200391 [kJ/mol]
      Elst12,r                      0.14003460 [mEh]       0.08787304 [kcal/mol]       0.36766079 [kJ/mol]

    Exchange                        0.00105310 [mEh]       0.00066083 [kcal/mol]       0.00276491 [kJ/mol]
      Exch10                        0.00101505 [mEh]       0.00063696 [kcal/mol]       0.00266502 [kJ/mol]
      Exch10(S^2)                   0.00101505 [mEh]       0.00063696 [kcal/mol]       0.00266503 [kJ/mol]
      Exch11(S^2)                  -0.00003271 [mEh]      -0.00002053 [kcal/mol]      -0.00008589 [kJ/mol]
      Exch12(S^2)                   0.00007076 [mEh]       0.00004440 [kcal/mol]       0.00018578 [kJ/mol]

    Induction                      -0.02341720 [mEh]      -0.01469452 [kcal/mol]      -0.06148186 [kJ/mol]
      Ind20,r                      -0.03051630 [mEh]      -0.01914927 [kcal/mol]      -0.08012054 [kJ/mol]
      Ind22                         0.00794807 [mEh]       0.00498749 [kcal/mol]       0.02086764 [kJ/mol]
      Exch-Ind20,r                  0.00036315 [mEh]       0.00022788 [kcal/mol]       0.00095344 [kJ/mol]
      Exch-Ind22                   -0.00009458 [mEh]      -0.00005935 [kcal/mol]      -0.00024833 [kJ/mol]
      delta HF,r (2)               -0.00111753 [mEh]      -0.00070126 [kcal/mol]      -0.00293408 [kJ/mol]

    Dispersion                     -0.47769503 [mEh]      -0.29975816 [kcal/mol]      -1.25418812 [kJ/mol]
      Disp20                       -0.52612606 [mEh]      -0.33014909 [kcal/mol]      -1.38134379 [kJ/mol]
      Disp21                        0.19521007 [mEh]       0.12249617 [kcal/mol]       0.51252398 [kJ/mol]
      Disp22 (SDQ)                 -0.01246923 [mEh]      -0.00782456 [kcal/mol]      -0.03273795 [kJ/mol]
      Disp22 (T)                   -0.13262483 [mEh]      -0.08322333 [kcal/mol]      -0.34820643 [kJ/mol]
      Est. Disp22 (T)              -0.13470411 [mEh]      -0.08452810 [kcal/mol]      -0.35366559 [kJ/mol]
      Exch-Disp20                   0.00039430 [mEh]       0.00024742 [kcal/mol]       0.00103522 [kJ/mol]

  Total HF                         -0.78516105 [mEh]      -0.49269600 [kcal/mol]      -2.06144006 [kJ/mol]
  Total SAPT0                      -1.31089282 [mEh]      -0.82259766 [kcal/mol]      -3.44174863 [kJ/mol]
  Total SAPT2                      -1.16296669 [mEh]      -0.72977262 [kcal/mol]      -3.05336863 [kJ/mol]
  Total SAPT2+                     -1.11492995 [mEh]      -0.69962911 [kcal/mol]      -2.92724818 [kJ/mol]

  Special recipe for scaled SAPT0 (see Manual):
    Electrostatics sSAPT0          -0.75490542 [mEh]      -0.47371030 [kcal/mol]      -1.98200391 [kJ/mol]
    Exchange sSAPT0                 0.00101505 [mEh]       0.00063696 [kcal/mol]       0.00266502 [kJ/mol]
    Induction sSAPT0               -0.03127069 [mEh]      -0.01962265 [kcal/mol]      -0.08210118 [kJ/mol]
    Dispersion sSAPT0              -0.52573177 [mEh]      -0.32990166 [kcal/mol]      -1.38030857 [kJ/mol]
  Total sSAPT0                     -1.31089282 [mEh]      -0.82259766 [kcal/mol]      -3.44174863 [kJ/mol]
  --------------------------------------------------------------------------------------------------------

*** Psi4 exiting successfully. Buy a developer a beer!
