                               Psi4 1.4a2.dev224

  ==> Input File <==

--------------------------------------------------------------------------
#Generated by lconvert.py for sapt job

memory 50 GB

molecule  {
0 1
  N       1.210760    0.028680    0.329710
  C       0.611940   -1.158450    0.153450
  H       1.251480   -2.029520    0.219290
  C      -0.751310   -1.308650   -0.088830
  H      -1.170420   -2.296870   -0.213380
  C      -1.547870   -0.169940   -0.156470
  H      -2.611010   -0.245960   -0.338760
  C      -0.943620    1.070640    0.019820
  H      -1.518810    1.984500   -0.011640
  C       0.427720    1.116110    0.257350
  H       0.924700    2.068050    0.397550
--
0 1
  N      -0.540110   -0.184840    5.237380
  H      -1.435000   -0.616710    5.052780
  C      -0.539860    1.212970    5.330400
  O      -1.579740    1.841170    5.215550
  C       0.779640    1.772050    5.557960
  H       0.880950    2.839270    5.653830
  C       1.849510    0.953360    5.629480
  H       2.853390    1.322020    5.777910
  N       1.731450   -0.403940    5.516920
  H       2.544880   -0.996130    5.508760
  C       0.531000   -1.051170    5.290540
  O       0.438870   -2.256590    5.156960
units angstrom
no_reorient
symmetry c1
}

set {
scf_type DF
basis aug-cc-pvtz
freeze_core True
guess SAD
}
energy('sapt2+')
--------------------------------------------------------------------------

  //              Dimer HF             //
    Molecular point group: c1
  Charge       = 0
  Multiplicity = 1
  Basis Set: AUG-CC-PVTZ
    Blend: AUG-CC-PVTZ
  Basis Set: (AUG-CC-PVTZ AUX)
    Blend: AUG-CC-PVTZ-JKFIT
  @DF-RHF Final Energy:  -659.40431831002752
    Total Energy =                       -659.4043183100275201
  //            Monomer A HF           //
    Molecular point group: c1
  Multiplicity = 1
  Basis Set: AUG-CC-PVTZ
    Blend: AUG-CC-PVTZ
  Basis Set: (AUG-CC-PVTZ AUX)
    Blend: AUG-CC-PVTZ-JKFIT
  @DF-RHF Final Energy:  -246.77856918943337
    Total Energy =                       -246.7785691894333695
  //            Monomer B HF           //
    Molecular point group: c1

    Geometry (in Angstrom), charge = 0, multiplicity = 1:

       Center              X                  Y                   Z               Mass
    ------------   -----------------  -----------------  -----------------  -----------------
      Gh(N)           1.094948272602    -0.059245268727    -2.848510239288    14.003074004430
      Gh(C)           0.496128272602    -1.246375268727    -3.024770239288    12.000000000000
      Gh(H)           1.135668272602    -2.117445268727    -2.958930239288     1.007825032230
      Gh(C)          -0.867121727398    -1.396575268727    -3.267050239288    12.000000000000
      Gh(H)          -1.286231727398    -2.384795268727    -3.391600239288     1.007825032230
      Gh(C)          -1.663681727398    -0.257865268727    -3.334690239288    12.000000000000
      Gh(H)          -2.726821727398    -0.333885268727    -3.516980239288     1.007825032230
      Gh(C)          -1.059431727398     0.982714731273    -3.158400239288    12.000000000000
      Gh(H)          -1.634621727398     1.896574731273    -3.189860239288     1.007825032230
      Gh(C)           0.311908272602     1.028184731273    -2.920870239288    12.000000000000
      Gh(H)           0.808888272602     1.980124731273    -2.780670239288     1.007825032230
         N           -0.655921727398    -0.272765268727     2.059159760712    14.003074004430
         H           -1.550811727398    -0.704635268727     1.874559760712     1.007825032230
         C           -0.655671727398     1.125044731273     2.152179760712    12.000000000000
         O           -1.695551727398     1.753244731273     2.037329760712    15.994914619570
         C            0.663828272602     1.684124731273     2.379739760712    12.000000000000
         H            0.765138272602     2.751344731273     2.475609760712     1.007825032230
         C            1.733698272602     0.865434731273     2.451259760712    12.000000000000
         H            2.737578272602     1.234094731273     2.599689760712     1.007825032230
         N            1.615638272602    -0.491865268727     2.338699760712    14.003074004430
         H            2.429068272602    -1.084055268727     2.330539760712     1.007825032230
         C            0.415188272602    -1.139095268727     2.112319760712    12.000000000000
         O            0.323058272602    -2.344515268727     1.978739760712    15.994914619570

  Charge       = 0
  Multiplicity = 1
  Basis Set: AUG-CC-PVTZ
    Blend: AUG-CC-PVTZ
  Basis Set: (AUG-CC-PVTZ AUX)
    Blend: AUG-CC-PVTZ-JKFIT

    Orbital Energies [Eh]
    ---------------------

    Doubly Occupied:

       1A    -20.547986     2A    -20.542121     3A    -15.645843
       4A    -15.628288     5A    -11.419693     6A    -11.381430
       7A    -11.341631     8A    -11.256253     9A     -1.437258
      10A     -1.398101    11A     -1.315553    12A     -1.247360
      13A     -1.089617    14A     -0.935459    15A     -0.903079
      16A     -0.808510    17A     -0.766575    18A     -0.715610
      19A     -0.678240    20A     -0.670527    21A     -0.653606
      22A     -0.615364    23A     -0.602512    24A     -0.571477
      25A     -0.527145    26A     -0.484692    27A     -0.450076
      28A     -0.437609    29A     -0.369879

  @DF-RHF Final Energy:  -412.62443706308380

   => Energetics <=

    Nuclear Repulsion Energy =            357.2354905417820987
    One-Electron Energy =               -1270.8368499111968504
    Two-Electron Energy =                 500.9769223063308914
    Total Energy =                       -412.6244370630838034

  Dipole Moment: [D]
     X:     4.9270      Y:     0.8957      Z:     0.6745     Total:     5.0530

    SAPT Results
  --------------------------------------------------------------------------------------------------------
    Electrostatics                 -1.00582543 [mEh]      -0.63116499 [kcal/mol]      -2.64079431 [kJ/mol]
      Elst10,r                     -1.25830482 [mEh]      -0.78959819 [kcal/mol]      -3.30367884 [kJ/mol]
      Elst12,r                      0.25247938 [mEh]       0.15843321 [kcal/mol]       0.66288453 [kJ/mol]

    Exchange                        0.02818825 [mEh]       0.01768839 [kcal/mol]       0.07400824 [kJ/mol]
      Exch10                        0.02677378 [mEh]       0.01680080 [kcal/mol]       0.07029455 [kJ/mol]
      Exch10(S^2)                   0.02677374 [mEh]       0.01680078 [kcal/mol]       0.07029445 [kJ/mol]
      Exch11(S^2)                  -0.00012156 [mEh]      -0.00007628 [kcal/mol]      -0.00031915 [kJ/mol]
      Exch12(S^2)                   0.00153602 [mEh]       0.00096387 [kcal/mol]       0.00403283 [kJ/mol]

    Induction                      -0.06098408 [mEh]      -0.03826809 [kcal/mol]      -0.16011367 [kJ/mol]
      Ind20,r                      -0.08452610 [mEh]      -0.05304093 [kcal/mol]      -0.22192323 [kJ/mol]
      Ind22                         0.02178663 [mEh]       0.01367132 [kcal/mol]       0.05720080 [kJ/mol]
      Exch-Ind20,r                  0.00870702 [mEh]       0.00546374 [kcal/mol]       0.02286029 [kJ/mol]
      Exch-Ind22                   -0.00224424 [mEh]      -0.00140828 [kcal/mol]      -0.00589225 [kJ/mol]
      delta HF,r (2)               -0.00470740 [mEh]      -0.00295394 [kcal/mol]      -0.01235928 [kJ/mol]

    Dispersion                     -1.28851339 [mEh]      -0.80855436 [kcal/mol]      -3.38299143 [kJ/mol]
      Disp20                       -1.41107330 [mEh]      -0.88546187 [kcal/mol]      -3.70477245 [kJ/mol]
      Disp21                        0.50034747 [mEh]       0.31397278 [kcal/mol]       1.31366210 [kJ/mol]
      Disp22 (SDQ)                 -0.02748597 [mEh]      -0.01724771 [kcal/mol]      -0.07216442 [kJ/mol]
      Disp22 (T)                   -0.34786870 [mEh]      -0.21829090 [kcal/mol]      -0.91332914 [kJ/mol]
      Est. Disp22 (T)              -0.35822172 [mEh]      -0.22478752 [kcal/mol]      -0.94051099 [kJ/mol]
      Exch-Disp20                   0.00792014 [mEh]       0.00496996 [kcal/mol]       0.02079433 [kJ/mol]

  Total HF                         -1.31205751 [mEh]      -0.82332852 [kcal/mol]      -3.44480652 [kJ/mol]
  Total SAPT0                      -2.71521067 [mEh]      -1.70382042 [kcal/mol]      -7.12878464 [kJ/mol]
  Total SAPT2                      -2.44177442 [mEh]      -1.53223658 [kcal/mol]      -6.41087787 [kJ/mol]
  Total SAPT2+                     -2.32713465 [mEh]      -1.46029904 [kcal/mol]      -6.10989118 [kJ/mol]

  Special recipe for scaled SAPT0 (see Manual):
    Electrostatics sSAPT0          -1.25830482 [mEh]      -0.78959819 [kcal/mol]      -3.30367884 [kJ/mol]
    Exchange sSAPT0                 0.02677378 [mEh]       0.01680080 [kcal/mol]       0.07029455 [kJ/mol]
    Induction sSAPT0               -0.08052644 [mEh]      -0.05053110 [kcal/mol]      -0.21142213 [kJ/mol]
    Dispersion sSAPT0              -1.40315313 [mEh]      -0.88049188 [kcal/mol]      -3.68397803 [kJ/mol]
  Total sSAPT0                     -2.71521060 [mEh]      -1.70382038 [kcal/mol]      -7.12878446 [kJ/mol]
  --------------------------------------------------------------------------------------------------------

*** Psi4 exiting successfully. Buy a developer a beer!
