                               Psi4 1.4a2.dev224

  ==> Input File <==

--------------------------------------------------------------------------
#Generated by lconvert.py for sapt job

memory 50 GB

molecule  {
0 1
  C       0.835520    1.115170    0.021400
  H       1.484320    1.980610    0.019530
  C       1.383280   -0.166150    0.023770
  H       2.457150   -0.295200    0.022770
  C       0.547560   -1.281320    0.021690
  H       0.972940   -2.275810    0.019780
  C      -0.835520   -1.115160    0.021400
  H      -1.484330   -1.980610    0.019530
  C      -1.383280    0.166150    0.023760
  H      -2.457160    0.295210    0.022760
  C      -0.547570    1.281320    0.021680
  H      -0.972940    2.275810    0.019770
--
0 1
  C       0.655790   -0.116790    5.582030
  H       1.047250   -1.123910    5.577560
  H       1.370860    0.693270    5.577520
  C      -0.655770    0.116790    5.582030
  H      -1.370840   -0.693270    5.577540
  H      -1.047230    1.123910    5.577580
units angstrom
no_reorient
symmetry c1
}

set {
scf_type DF
basis aug-cc-pvtz
freeze_core True
guess SAD
}
energy('sapt2+')
--------------------------------------------------------------------------

  //              Dimer HF             //
    Molecular point group: c1
  Charge       = 0
  Multiplicity = 1
  Basis Set: AUG-CC-PVTZ
    Blend: AUG-CC-PVTZ
  Basis Set: (AUG-CC-PVTZ AUX)
    Blend: AUG-CC-PVTZ-JKFIT
  @DF-RHF Final Energy:  -308.84565210340583
    Total Energy =                       -308.8456521034058255
  //            Monomer A HF           //
    Molecular point group: c1
  Multiplicity = 1
  Basis Set: AUG-CC-PVTZ
    Blend: AUG-CC-PVTZ
  Basis Set: (AUG-CC-PVTZ AUX)
    Blend: AUG-CC-PVTZ-JKFIT
  @DF-RHF Final Energy:  -230.78132585619335
    Total Energy =                       -230.7813258561933480
  //            Monomer B HF           //
    Molecular point group: c1

    Geometry (in Angstrom), charge = 0, multiplicity = 1:

       Center              X                  Y                   Z               Mass
    ------------   -----------------  -----------------  -----------------  -----------------
      Gh(C)           0.835518678744     1.115168773752    -1.469791728304    12.000000000000
      Gh(H)           1.484318678744     1.980608773752    -1.471661728304     1.007825032230
      Gh(C)           1.383278678744    -0.166151226248    -1.467421728304    12.000000000000
      Gh(H)           2.457148678744    -0.295201226248    -1.468421728304     1.007825032230
      Gh(C)           0.547558678744    -1.281321226248    -1.469501728304    12.000000000000
      Gh(H)           0.972938678744    -2.275811226248    -1.471411728304     1.007825032230
      Gh(C)          -0.835521321256    -1.115161226248    -1.469791728304    12.000000000000
      Gh(H)          -1.484331321256    -1.980611226248    -1.471661728304     1.007825032230
      Gh(C)          -1.383281321256     0.166148773752    -1.467431728304    12.000000000000
      Gh(H)          -2.457161321256     0.295208773752    -1.468431728304     1.007825032230
      Gh(C)          -0.547571321256     1.281318773752    -1.469511728304    12.000000000000
      Gh(H)          -0.972941321256     2.275808773752    -1.471421728304     1.007825032230
         C            0.655788678744    -0.116791226248     4.090838271696    12.000000000000
         H            1.047248678744    -1.123911226248     4.086368271696     1.007825032230
         H            1.370858678744     0.693268773752     4.086328271696     1.007825032230
         C           -0.655771321256     0.116788773752     4.090838271696    12.000000000000
         H           -1.370841321256    -0.693271226248     4.086348271696     1.007825032230
         H           -1.047231321256     1.123908773752     4.086388271696     1.007825032230

  Charge       = 0
  Multiplicity = 1
  Basis Set: AUG-CC-PVTZ
    Blend: AUG-CC-PVTZ
  Basis Set: (AUG-CC-PVTZ AUX)
    Blend: AUG-CC-PVTZ-JKFIT

    Orbital Energies [Eh]
    ---------------------

    Doubly Occupied:

       1A    -11.231213     2A    -11.229488     3A     -1.034879
       4A     -0.793579     5A     -0.645101     6A     -0.587926
       7A     -0.508675     8A     -0.377252

  @DF-RHF Final Energy:   -78.06474047932011

   => Energetics <=

    Nuclear Repulsion Energy =             33.4299978002247258
    One-Electron Energy =                -170.1732583702931834
    Two-Electron Energy =                  58.6785200907483500
    Total Energy =                        -78.0647404793201076

  Dipole Moment: [D]
     X:    -0.0000      Y:     0.0000      Z:    -0.0132     Total:     0.0132

    SAPT Results
  --------------------------------------------------------------------------------------------------------
    Electrostatics                  0.32452845 [mEh]       0.20364468 [kcal/mol]       0.85204933 [kJ/mol]
      Elst10,r                      0.42348049 [mEh]       0.26573802 [kcal/mol]       1.11184787 [kJ/mol]
      Elst12,r                     -0.09895204 [mEh]      -0.06209334 [kcal/mol]      -0.25979854 [kJ/mol]

    Exchange                        0.01363231 [mEh]       0.00855441 [kcal/mol]       0.03579163 [kJ/mol]
      Exch10                        0.01286132 [mEh]       0.00807060 [kcal/mol]       0.03376738 [kJ/mol]
      Exch10(S^2)                   0.01286110 [mEh]       0.00807046 [kcal/mol]       0.03376682 [kJ/mol]
      Exch11(S^2)                   0.00043090 [mEh]       0.00027040 [kcal/mol]       0.00113134 [kJ/mol]
      Exch12(S^2)                   0.00034009 [mEh]       0.00021341 [kcal/mol]       0.00089292 [kJ/mol]

    Induction                      -0.01971743 [mEh]      -0.01237288 [kcal/mol]      -0.05176811 [kJ/mol]
      Ind20,r                      -0.02671683 [mEh]      -0.01676507 [kcal/mol]      -0.07014503 [kJ/mol]
      Ind22                         0.00282127 [mEh]       0.00177037 [kcal/mol]       0.00740723 [kJ/mol]
      Exch-Ind20,r                  0.00406256 [mEh]       0.00254930 [kcal/mol]       0.01066626 [kJ/mol]
      Exch-Ind22                   -0.00042900 [mEh]      -0.00026920 [kcal/mol]      -0.00112634 [kJ/mol]
      delta HF,r (2)                0.00054457 [mEh]       0.00034172 [kcal/mol]       0.00142978 [kJ/mol]

    Dispersion                     -0.48156235 [mEh]      -0.30218494 [kcal/mol]      -1.26434178 [kJ/mol]
      Disp20                       -0.56883802 [mEh]      -0.35695125 [kcal/mol]      -1.49348402 [kJ/mol]
      Disp21                        0.14571851 [mEh]       0.09143975 [kcal/mol]       0.38258390 [kJ/mol]
      Disp22 (SDQ)                  0.05538299 [mEh]       0.03475335 [kcal/mol]       0.14540802 [kJ/mol]
      Disp22 (T)                   -0.11417369 [mEh]      -0.07164507 [kcal/mol]      -0.29976298 [kJ/mol]
      Est. Disp22 (T)              -0.11993794 [mEh]      -0.07526219 [kcal/mol]      -0.31489702 [kJ/mol]
      Exch-Disp20                   0.00611211 [mEh]       0.00383541 [kcal/mol]       0.01604735 [kJ/mol]

  Total HF                          0.41423211 [mEh]       0.25993457 [kcal/mol]       1.08756625 [kJ/mol]
  Total SAPT0                      -0.14849380 [mEh]      -0.09318127 [kcal/mol]      -0.38987043 [kJ/mol]
  Total SAPT2                      -0.24428258 [mEh]      -0.15328963 [kcal/mol]      -0.64136382 [kJ/mol]
  Total SAPT2+                     -0.16311902 [mEh]      -0.10235873 [kcal/mol]      -0.42826893 [kJ/mol]

  Special recipe for scaled SAPT0 (see Manual):
    Electrostatics sSAPT0           0.42348049 [mEh]       0.26573802 [kcal/mol]       1.11184787 [kJ/mol]
    Exchange sSAPT0                 0.01286132 [mEh]       0.00807060 [kcal/mol]       0.03376738 [kJ/mol]
    Induction sSAPT0               -0.02210949 [mEh]      -0.01387392 [kcal/mol]      -0.05804847 [kJ/mol]
    Dispersion sSAPT0              -0.56272561 [mEh]      -0.35311565 [kcal/mol]      -1.47743588 [kJ/mol]
  Total sSAPT0                     -0.14849330 [mEh]      -0.09318095 [kcal/mol]      -0.38986910 [kJ/mol]
  --------------------------------------------------------------------------------------------------------

*** Psi4 exiting successfully. Buy a developer a beer!
