                               Psi4 1.4a2.dev224

  ==> Input File <==

--------------------------------------------------------------------------
#Generated by lconvert.py for sapt job

memory 50 GB

molecule  {
0 1
  C       0.835520    1.115170    0.021400
  H       1.484320    1.980610    0.019530
  C       1.383280   -0.166150    0.023770
  H       2.457150   -0.295200    0.022770
  C       0.547560   -1.281320    0.021690
  H       0.972940   -2.275810    0.019780
  C      -0.835520   -1.115160    0.021400
  H      -1.484330   -1.980610    0.019530
  C      -1.383280    0.166150    0.023760
  H      -2.457160    0.295210    0.022760
  C      -0.547570    1.281320    0.021680
  H      -0.972940    2.275810    0.019770
--
0 1
  C       0.655790   -0.116790    6.645510
  H       1.047250   -1.123910    6.641040
  H       1.370860    0.693270    6.641010
  C      -0.655770    0.116790    6.645520
  H      -1.370840   -0.693270    6.641020
  H      -1.047230    1.123910    6.641060
units angstrom
no_reorient
symmetry c1
}

set {
scf_type DF
basis aug-cc-pvtz
freeze_core True
guess SAD
}
energy('sapt2+')
--------------------------------------------------------------------------

  //              Dimer HF             //
    Molecular point group: c1
  Charge       = 0
  Multiplicity = 1
  Basis Set: AUG-CC-PVTZ
    Blend: AUG-CC-PVTZ
  Basis Set: (AUG-CC-PVTZ AUX)
    Blend: AUG-CC-PVTZ-JKFIT
  @DF-RHF Final Energy:  -308.84583761227105
    Total Energy =                       -308.8458376122710547
  //            Monomer A HF           //
    Molecular point group: c1
  Multiplicity = 1
  Basis Set: AUG-CC-PVTZ
    Blend: AUG-CC-PVTZ
  Basis Set: (AUG-CC-PVTZ AUX)
    Blend: AUG-CC-PVTZ-JKFIT
  @DF-RHF Final Energy:  -230.78131253631958
    Total Energy =                       -230.7813125363196036
  //            Monomer B HF           //
    Molecular point group: c1

    Geometry (in Angstrom), charge = 0, multiplicity = 1:

       Center              X                  Y                   Z               Mass
    ------------   -----------------  -----------------  -----------------  -----------------
      Gh(C)           0.835518678744     1.115168773752    -1.750818772479    12.000000000000
      Gh(H)           1.484318678744     1.980608773752    -1.752688772479     1.007825032230
      Gh(C)           1.383278678744    -0.166151226248    -1.748448772479    12.000000000000
      Gh(H)           2.457148678744    -0.295201226248    -1.749448772479     1.007825032230
      Gh(C)           0.547558678744    -1.281321226248    -1.750528772479    12.000000000000
      Gh(H)           0.972938678744    -2.275811226248    -1.752438772479     1.007825032230
      Gh(C)          -0.835521321256    -1.115161226248    -1.750818772479    12.000000000000
      Gh(H)          -1.484331321256    -1.980611226248    -1.752688772479     1.007825032230
      Gh(C)          -1.383281321256     0.166148773752    -1.748458772479    12.000000000000
      Gh(H)          -2.457161321256     0.295208773752    -1.749458772479     1.007825032230
      Gh(C)          -0.547571321256     1.281318773752    -1.750538772479    12.000000000000
      Gh(H)          -0.972941321256     2.275808773752    -1.752448772479     1.007825032230
         C            0.655788678744    -0.116791226248     4.873291227521    12.000000000000
         H            1.047248678744    -1.123911226248     4.868821227521     1.007825032230
         H            1.370858678744     0.693268773752     4.868791227521     1.007825032230
         C           -0.655771321256     0.116788773752     4.873301227521    12.000000000000
         H           -1.370841321256    -0.693271226248     4.868801227521     1.007825032230
         H           -1.047231321256     1.123908773752     4.868841227521     1.007825032230

  Charge       = 0
  Multiplicity = 1
  Basis Set: AUG-CC-PVTZ
    Blend: AUG-CC-PVTZ
  Basis Set: (AUG-CC-PVTZ AUX)
    Blend: AUG-CC-PVTZ-JKFIT

    Orbital Energies [Eh]
    ---------------------

    Doubly Occupied:

       1A    -11.231211     2A    -11.229487     3A     -1.034877
       4A     -0.793578     5A     -0.645100     6A     -0.587925
       7A     -0.508674     8A     -0.377250

  @DF-RHF Final Energy:   -78.06473518616377

   => Energetics <=

    Nuclear Repulsion Energy =             33.4299976728157588
    One-Electron Energy =                -170.1732672028633147
    Two-Electron Energy =                  58.6785343438837614
    Total Energy =                        -78.0647351861637731

  Dipole Moment: [D]
     X:    -0.0000      Y:     0.0000      Z:    -0.0134     Total:     0.0134

    SAPT Results
  --------------------------------------------------------------------------------------------------------
    Electrostatics                  0.16744551 [mEh]       0.10507364 [kcal/mol]       0.43962812 [kJ/mol]
      Elst10,r                      0.21666037 [mEh]       0.13595644 [kcal/mol]       0.56884173 [kJ/mol]
      Elst12,r                     -0.04921486 [mEh]      -0.03088279 [kcal/mol]      -0.12921361 [kJ/mol]

    Exchange                        0.00042001 [mEh]       0.00026356 [kcal/mol]       0.00110273 [kJ/mol]
      Exch10                        0.00036416 [mEh]       0.00022851 [kcal/mol]       0.00095609 [kJ/mol]
      Exch10(S^2)                   0.00036416 [mEh]       0.00022851 [kcal/mol]       0.00095609 [kJ/mol]
      Exch11(S^2)                  -0.00000230 [mEh]      -0.00000145 [kcal/mol]      -0.00000605 [kJ/mol]
      Exch12(S^2)                   0.00005815 [mEh]       0.00003649 [kcal/mol]       0.00015268 [kJ/mol]

    Induction                      -0.00623564 [mEh]      -0.00391292 [kcal/mol]      -0.01637166 [kJ/mol]
      Ind20,r                      -0.00690055 [mEh]      -0.00433016 [kcal/mol]      -0.01811740 [kJ/mol]
      Ind22                         0.00069498 [mEh]       0.00043611 [kcal/mol]       0.00182467 [kJ/mol]
      Exch-Ind20,r                  0.00016185 [mEh]       0.00010156 [kcal/mol]       0.00042493 [kJ/mol]
      Exch-Ind22                   -0.00001630 [mEh]      -0.00001023 [kcal/mol]      -0.00004280 [kJ/mol]
      delta HF,r (2)               -0.00017561 [mEh]      -0.00011020 [kcal/mol]      -0.00046106 [kJ/mol]

    Dispersion                     -0.16405856 [mEh]      -0.10294830 [kcal/mol]      -0.43073569 [kJ/mol]
      Disp20                       -0.19380509 [mEh]      -0.12161453 [kcal/mol]      -0.50883518 [kJ/mol]
      Disp21                        0.05309398 [mEh]       0.03331697 [kcal/mol]       0.13939822 [kJ/mol]
      Disp22 (SDQ)                  0.01734738 [mEh]       0.01088564 [kcal/mol]       0.04554554 [kJ/mol]
      Disp22 (T)                   -0.03991194 [mEh]      -0.02504512 [kcal/mol]      -0.10478878 [kJ/mol]
      Est. Disp22 (T)              -0.04099628 [mEh]      -0.02572556 [kcal/mol]      -0.10763573 [kJ/mol]
      Exch-Disp20                   0.00030145 [mEh]       0.00018917 [kcal/mol]       0.00079147 [kJ/mol]

  Total HF                          0.21011021 [mEh]       0.13184615 [kcal/mol]       0.55164429 [kJ/mol]
  Total SAPT0                       0.01660658 [mEh]       0.01042079 [kcal/mol]       0.04360057 [kJ/mol]
  Total SAPT2                      -0.03187375 [mEh]      -0.02000108 [kcal/mol]      -0.08368452 [kJ/mol]
  Total SAPT2+                     -0.00242868 [mEh]      -0.00152402 [kcal/mol]      -0.00637650 [kJ/mol]

  Special recipe for scaled SAPT0 (see Manual):
    Electrostatics sSAPT0           0.21666037 [mEh]       0.13595644 [kcal/mol]       0.56884173 [kJ/mol]
    Exchange sSAPT0                 0.00036416 [mEh]       0.00022851 [kcal/mol]       0.00095609 [kJ/mol]
    Induction sSAPT0               -0.00691432 [mEh]      -0.00433880 [kcal/mol]      -0.01815353 [kJ/mol]
    Dispersion sSAPT0              -0.19350363 [mEh]      -0.12142536 [kcal/mol]      -0.50804371 [kJ/mol]
  Total sSAPT0                      0.01660658 [mEh]       0.01042079 [kcal/mol]       0.04360057 [kJ/mol]
  --------------------------------------------------------------------------------------------------------

*** Psi4 exiting successfully. Buy a developer a beer!
