                               Psi4 1.4a2.dev224

  ==> Input File <==

--------------------------------------------------------------------------
#Generated by lconvert.py for sapt job

memory 50 GB

molecule  {
0 1
  C       0.835520    1.115170    0.021400
  H       1.484320    1.980610    0.019530
  C       1.383280   -0.166150    0.023770
  H       2.457150   -0.295200    0.022770
  C       0.547560   -1.281320    0.021690
  H       0.972940   -2.275810    0.019780
  C      -0.835520   -1.115160    0.021400
  H      -1.484330   -1.980610    0.019530
  C      -1.383280    0.166150    0.023760
  H      -2.457160    0.295210    0.022760
  C      -0.547570    1.281320    0.021680
  H      -0.972940    2.275810    0.019770
--
0 1
  C       0.655780   -0.116790    4.518540
  H       1.047240   -1.123910    4.514080
  H       1.370860    0.693270    4.514040
  C      -0.655770    0.116790    4.518550
  H      -1.370850   -0.693270    4.514060
  H      -1.047240    1.123910    4.514090
units angstrom
no_reorient
symmetry c1
}

set {
scf_type DF
basis aug-cc-pvtz
freeze_core True
guess SAD
}
energy('sapt2+')
--------------------------------------------------------------------------

  //              Dimer HF             //
    Molecular point group: c1
  Charge       = 0
  Multiplicity = 1
  Basis Set: AUG-CC-PVTZ
    Blend: AUG-CC-PVTZ
  Basis Set: (AUG-CC-PVTZ AUX)
    Blend: AUG-CC-PVTZ-JKFIT
  @DF-RHF Final Energy:  -308.84514253771874
    Total Energy =                       -308.8451425377187434
  //            Monomer A HF           //
    Molecular point group: c1
  Multiplicity = 1
  Basis Set: AUG-CC-PVTZ
    Blend: AUG-CC-PVTZ
  Basis Set: (AUG-CC-PVTZ AUX)
    Blend: AUG-CC-PVTZ-JKFIT
  @DF-RHF Final Energy:  -230.78134880290744
    Total Energy =                       -230.7813488029074165
  //            Monomer B HF           //
    Molecular point group: c1

    Geometry (in Angstrom), charge = 0, multiplicity = 1:

       Center              X                  Y                   Z               Mass
    ------------   -----------------  -----------------  -----------------  -----------------
      Gh(C)           0.835520095008     1.115168773752    -1.188764684129    12.000000000000
      Gh(H)           1.484320095008     1.980608773752    -1.190634684129     1.007825032230
      Gh(C)           1.383280095008    -0.166151226248    -1.186394684129    12.000000000000
      Gh(H)           2.457150095008    -0.295201226248    -1.187394684129     1.007825032230
      Gh(C)           0.547560095008    -1.281321226248    -1.188474684129    12.000000000000
      Gh(H)           0.972940095008    -2.275811226248    -1.190384684129     1.007825032230
      Gh(C)          -0.835519904992    -1.115161226248    -1.188764684129    12.000000000000
      Gh(H)          -1.484329904992    -1.980611226248    -1.190634684129     1.007825032230
      Gh(C)          -1.383279904992     0.166148773752    -1.186404684129    12.000000000000
      Gh(H)          -2.457159904992     0.295208773752    -1.187404684129     1.007825032230
      Gh(C)          -0.547569904992     1.281318773752    -1.188484684129    12.000000000000
      Gh(H)          -0.972939904992     2.275808773752    -1.190394684129     1.007825032230
         C            0.655780095008    -0.116791226248     3.308375315871    12.000000000000
         H            1.047240095008    -1.123911226248     3.303915315871     1.007825032230
         H            1.370860095008     0.693268773752     3.303875315871     1.007825032230
         C           -0.655769904992     0.116788773752     3.308385315871    12.000000000000
         H           -1.370849904992    -0.693271226248     3.303895315871     1.007825032230
         H           -1.047239904992     1.123908773752     3.303925315871     1.007825032230

  Charge       = 0
  Multiplicity = 1
  Basis Set: AUG-CC-PVTZ
    Blend: AUG-CC-PVTZ
  Basis Set: (AUG-CC-PVTZ AUX)
    Blend: AUG-CC-PVTZ-JKFIT

    Orbital Energies [Eh]
    ---------------------

    Doubly Occupied:

       1A    -11.231190     2A    -11.229465     3A     -1.034863
       4A     -0.793559     5A     -0.645079     6A     -0.587912
       7A     -0.508652     8A     -0.377255

  @DF-RHF Final Energy:   -78.06476358112101

   => Energetics <=

    Nuclear Repulsion Energy =             33.4300619066981000
    One-Electron Energy =                -170.1737078248446267
    Two-Electron Energy =                  58.6788823370255059
    Total Energy =                        -78.0647635811210137

  Dipole Moment: [D]
     X:    -0.0000      Y:    -0.0000      Z:    -0.0133     Total:     0.0133

    SAPT Results
  --------------------------------------------------------------------------------------------------------
    Electrostatics                  0.52351371 [mEh]       0.32850981 [kcal/mol]       1.37448505 [kJ/mol]
      Elst10,r                      0.71458085 [mEh]       0.44840625 [kcal/mol]       1.87613176 [kJ/mol]
      Elst12,r                     -0.19106714 [mEh]      -0.11989644 [kcal/mol]      -0.50164671 [kJ/mol]

    Exchange                        0.36048934 [mEh]       0.22621048 [kcal/mol]       0.94646464 [kJ/mol]
      Exch10                        0.35550469 [mEh]       0.22308256 [kcal/mol]       0.93337742 [kJ/mol]
      Exch10(S^2)                   0.35538165 [mEh]       0.22300536 [kcal/mol]       0.93305441 [kJ/mol]
      Exch11(S^2)                   0.01841254 [mEh]       0.01155404 [kcal/mol]       0.04834212 [kJ/mol]
      Exch12(S^2)                  -0.01342788 [mEh]      -0.00842612 [kcal/mol]      -0.03525490 [kJ/mol]

    Induction                      -0.09193105 [mEh]      -0.05768761 [kcal/mol]      -0.24136495 [kJ/mol]
      Ind20,r                      -0.21076895 [mEh]      -0.13225952 [kcal/mol]      -0.55337381 [kJ/mol]
      Ind22                         0.02198338 [mEh]       0.01379478 [kcal/mol]       0.05771736 [kJ/mol]
      Exch-Ind20,r                  0.13111314 [mEh]       0.08227474 [kcal/mol]       0.34423750 [kJ/mol]
      Exch-Ind22                   -0.01367521 [mEh]      -0.00858133 [kcal/mol]      -0.03590426 [kJ/mol]
      delta HF,r (2)               -0.02058341 [mEh]      -0.01291628 [kcal/mol]      -0.05404174 [kJ/mol]

    Dispersion                     -1.75197979 [mEh]      -1.09938391 [kcal/mol]      -4.59982230 [kJ/mol]
      Disp20                       -2.13664197 [mEh]      -1.34076308 [kcal/mol]      -5.60975273 [kJ/mol]
      Disp21                        0.49226786 [mEh]       0.30890275 [kcal/mol]       1.29244909 [kJ/mol]
      Disp22 (SDQ)                  0.22676787 [mEh]       0.14229898 [kcal/mol]       0.59537895 [kJ/mol]
      Disp22 (T)                   -0.40475674 [mEh]      -0.25398869 [kcal/mol]      -1.06268868 [kJ/mol]
      Est. Disp22 (T)              -0.44431700 [mEh]      -0.27881313 [kcal/mol]      -1.16655413 [kJ/mol]
      Exch-Disp20                   0.10994346 [mEh]       0.06899056 [kcal/mol]       0.28865651 [kJ/mol]

  Total HF                          0.96984631 [mEh]       0.60858775 [kcal/mol]       2.54633114 [kJ/mol]
  Total SAPT0                      -1.05685220 [mEh]      -0.66318477 [kcal/mol]      -2.77476508 [kJ/mol]
  Total SAPT2                      -1.23462652 [mEh]      -0.77473984 [kcal/mol]      -3.24151148 [kJ/mol]
  Total SAPT2+                     -0.95990779 [mEh]      -0.60235123 [kcal/mol]      -2.52023756 [kJ/mol]

  Special recipe for scaled SAPT0 (see Manual):
    Electrostatics sSAPT0           0.71458085 [mEh]       0.44840625 [kcal/mol]       1.87613176 [kJ/mol]
    Exchange sSAPT0                 0.35550469 [mEh]       0.22308256 [kcal/mol]       0.93337742 [kJ/mol]
    Induction sSAPT0               -0.10010301 [mEh]      -0.06281558 [kcal/mol]      -0.26282040 [kJ/mol]
    Dispersion sSAPT0              -2.02658429 [mEh]      -1.27170084 [kcal/mol]      -5.32079632 [kJ/mol]
  Total sSAPT0                     -1.05660176 [mEh]      -0.66302762 [kcal/mol]      -2.77410754 [kJ/mol]
  --------------------------------------------------------------------------------------------------------

*** Psi4 exiting successfully. Buy a developer a beer!
