                               Psi4 1.4a2.dev224

  ==> Input File <==

--------------------------------------------------------------------------
#Generated by lconvert.py for sapt job

memory 50 GB

molecule  {
0 1
  N      -0.050870   -0.980080    0.033960
  H      -0.053220   -1.990690    0.049820
  C      -1.308810   -0.361880    0.004030
  O      -2.327220   -1.032550   -0.005830
  C      -1.236820    1.088050   -0.012220
  H      -2.152740    1.651460   -0.054770
  C      -0.035190    1.697840    0.033700
  H       0.070370    2.772480    0.031880
  N       1.134530    0.990280    0.091840
  H       2.023720    1.456770    0.155690
  C       1.193190   -0.391830    0.115780
  O       2.236400   -1.011190    0.194190
--
0 1
  C       0.774770    0.087110    5.217940
  H       1.291890   -0.783870    4.840710
  H       1.380380    0.874110    5.645250
  C      -0.554000    0.187700    5.168690
  H      -1.166010   -0.599780    4.751790
  H      -1.065830    1.058770    5.552690
units angstrom
no_reorient
symmetry c1
}

set {
scf_type DF
basis aug-cc-pvtz
freeze_core True
guess SAD
}
energy('sapt2+')
--------------------------------------------------------------------------

  //              Dimer HF             //
    Molecular point group: c1
  Charge       = 0
  Multiplicity = 1
  Basis Set: AUG-CC-PVTZ
    Blend: AUG-CC-PVTZ
  Basis Set: (AUG-CC-PVTZ AUX)
    Blend: AUG-CC-PVTZ-JKFIT
  @DF-RHF Final Energy:  -490.68986542120325
    Total Energy =                       -490.6898654212031943
  //            Monomer A HF           //
    Molecular point group: c1
  Multiplicity = 1
  Basis Set: AUG-CC-PVTZ
    Blend: AUG-CC-PVTZ
  Basis Set: (AUG-CC-PVTZ AUX)
    Blend: AUG-CC-PVTZ-JKFIT
  @DF-RHF Final Energy:  -412.62459972406316
    Total Energy =                       -412.6245997240631596
  //            Monomer B HF           //
    Molecular point group: c1

    Geometry (in Angstrom), charge = 0, multiplicity = 1:

       Center              X                  Y                   Z               Mass
    ------------   -----------------  -----------------  -----------------  -----------------
      Gh(N)          -0.051232162913    -0.977304388664    -1.053060919455    14.003074004430
      Gh(H)          -0.053582162913    -1.987914388664    -1.037200919455     1.007825032230
      Gh(C)          -1.309172162913    -0.359104388664    -1.082990919455    12.000000000000
      Gh(O)          -2.327582162913    -1.029774388664    -1.092850919455    15.994914619570
      Gh(C)          -1.237182162913     1.090825611336    -1.099240919455    12.000000000000
      Gh(H)          -2.153102162913     1.654235611336    -1.141790919455     1.007825032230
      Gh(C)          -0.035552162913     1.700615611336    -1.053320919455    12.000000000000
      Gh(H)           0.070007837087     2.775255611336    -1.055140919455     1.007825032230
      Gh(N)           1.134167837087     0.993055611336    -0.995180919455    14.003074004430
      Gh(H)           2.023357837087     1.459545611336    -0.931330919455     1.007825032230
      Gh(C)           1.192827837087    -0.389054388664    -0.971240919455    12.000000000000
      Gh(O)           2.236037837087    -1.008414388664    -0.892830919455    15.994914619570
         C            0.774407837087     0.089885611336     4.130919080545    12.000000000000
         H            1.291527837087    -0.781094388664     3.753689080545     1.007825032230
         H            1.380017837087     0.876885611336     4.558229080545     1.007825032230
         C           -0.554362162913     0.190475611336     4.081669080545    12.000000000000
         H           -1.166372162913    -0.597004388664     3.664769080545     1.007825032230
         H           -1.066192162913     1.061545611336     4.465669080545     1.007825032230

  Charge       = 0
  Multiplicity = 1
  Basis Set: AUG-CC-PVTZ
    Blend: AUG-CC-PVTZ
  Basis Set: (AUG-CC-PVTZ AUX)
    Blend: AUG-CC-PVTZ-JKFIT

    Orbital Energies [Eh]
    ---------------------

    Doubly Occupied:

       1A    -11.231626     2A    -11.229913     3A     -1.034367
       4A     -0.793821     5A     -0.644490     6A     -0.588110
       7A     -0.508552     8A     -0.376983

  @DF-RHF Final Energy:   -78.06468011545277

   => Energetics <=

    Nuclear Repulsion Energy =             33.4041570925336515
    One-Electron Energy =                -170.1219587119837513
    Two-Electron Energy =                  58.6531215039973048
    Total Energy =                        -78.0646801154527736

  Dipole Moment: [D]
     X:    -0.0010      Y:    -0.0048      Z:     0.0117     Total:     0.0127

    SAPT Results
  --------------------------------------------------------------------------------------------------------
    Electrostatics                 -0.37960059 [mEh]      -0.23820297 [kcal/mol]      -0.99664122 [kJ/mol]
      Elst10,r                     -0.57968990 [mEh]      -0.36376090 [kcal/mol]      -1.52197562 [kJ/mol]
      Elst12,r                      0.20008931 [mEh]       0.12555794 [kcal/mol]       0.52533440 [kJ/mol]

    Exchange                        0.03421890 [mEh]       0.02147269 [kcal/mol]       0.08984172 [kJ/mol]
      Exch10                        0.03665917 [mEh]       0.02300398 [kcal/mol]       0.09624864 [kJ/mol]
      Exch10(S^2)                   0.03665699 [mEh]       0.02300261 [kcal/mol]       0.09624291 [kJ/mol]
      Exch11(S^2)                   0.00088513 [mEh]       0.00055543 [kcal/mol]       0.00232390 [kJ/mol]
      Exch12(S^2)                  -0.00332539 [mEh]      -0.00208672 [kcal/mol]      -0.00873082 [kJ/mol]

    Induction                      -0.03145397 [mEh]      -0.01973766 [kcal/mol]      -0.08258239 [kJ/mol]
      Ind20,r                      -0.05878333 [mEh]      -0.03688710 [kcal/mol]      -0.15433562 [kJ/mol]
      Ind22                         0.01659540 [mEh]       0.01041377 [kcal/mol]       0.04357121 [kJ/mol]
      Exch-Ind20,r                  0.01947617 [mEh]       0.01222148 [kcal/mol]       0.05113467 [kJ/mol]
      Exch-Ind22                   -0.00549841 [mEh]      -0.00345030 [kcal/mol]      -0.01443607 [kJ/mol]
      delta HF,r (2)               -0.00324379 [mEh]      -0.00203551 [kcal/mol]      -0.00851658 [kJ/mol]

    Dispersion                     -0.74336116 [mEh]      -0.46646617 [kcal/mol]      -1.95169446 [kJ/mol]
      Disp20                       -0.80787129 [mEh]      -0.50694689 [kcal/mol]      -2.12106578 [kJ/mol]
      Disp21                        0.18417359 [mEh]       0.11557067 [kcal/mol]       0.48354770 [kJ/mol]
      Disp22 (SDQ)                  0.04095449 [mEh]       0.02569933 [kcal/mol]       0.10752599 [kJ/mol]
      Disp22 (T)                   -0.16222595 [mEh]      -0.10179832 [kcal/mol]      -0.42592418 [kJ/mol]
      Est. Disp22 (T)              -0.17076789 [mEh]      -0.10715847 [kcal/mol]      -0.44835103 [kJ/mol]
      Exch-Disp20                   0.01014994 [mEh]       0.00636918 [kcal/mol]       0.02664866 [kJ/mol]

  Total HF                         -0.58558169 [mEh]      -0.36745806 [kcal/mol]      -1.53744451 [kJ/mol]
  Total SAPT0                      -1.38330304 [mEh]      -0.86803576 [kcal/mol]      -3.63186162 [kJ/mol]
  Total SAPT2                      -1.17455701 [mEh]      -0.73704565 [kcal/mol]      -3.08379900 [kJ/mol]
  Total SAPT2+                     -1.12019682 [mEh]      -0.70293412 [kcal/mol]      -2.94107634 [kJ/mol]

  Special recipe for scaled SAPT0 (see Manual):
    Electrostatics sSAPT0          -0.57968990 [mEh]      -0.36376090 [kcal/mol]      -1.52197562 [kJ/mol]
    Exchange sSAPT0                 0.03665917 [mEh]       0.02300398 [kcal/mol]       0.09624864 [kJ/mol]
    Induction sSAPT0               -0.04254748 [mEh]      -0.02669895 [kcal/mol]      -0.11170839 [kJ/mol]
    Dispersion sSAPT0              -0.79771954 [mEh]      -0.50057657 [kcal/mol]      -2.09441235 [kJ/mol]
  Total sSAPT0                     -1.38329774 [mEh]      -0.86803244 [kcal/mol]      -3.63184772 [kJ/mol]
  --------------------------------------------------------------------------------------------------------

*** Psi4 exiting successfully. Buy a developer a beer!
