                               Psi4 1.4a2.dev224

  ==> Input File <==

--------------------------------------------------------------------------
#Generated by lconvert.py for sapt job

memory 50 GB

molecule  {
0 1
  N      -0.050870   -0.980080    0.033960
  H      -0.053220   -1.990690    0.049820
  C      -1.308810   -0.361880    0.004030
  O      -2.327220   -1.032550   -0.005830
  C      -1.236820    1.088050   -0.012220
  H      -2.152740    1.651460   -0.054770
  C      -0.035190    1.697840    0.033700
  H       0.070370    2.772480    0.031880
  N       1.134530    0.990280    0.091840
  H       2.023720    1.456770    0.155690
  C       1.193190   -0.391830    0.115780
  O       2.236400   -1.011190    0.194190
--
0 1
  C       0.798920    0.117850    6.119250
  H       1.316040   -0.753140    5.742030
  H       1.404540    0.904850    6.546570
  C      -0.529850    0.218440    6.070010
  H      -1.141860   -0.569040    5.653100
  H      -1.041680    1.089510    6.454010
units angstrom
no_reorient
symmetry c1
}

set {
scf_type DF
basis aug-cc-pvtz
freeze_core True
guess SAD
}
energy('sapt2+')
--------------------------------------------------------------------------

  //              Dimer HF             //
    Molecular point group: c1
  Charge       = 0
  Multiplicity = 1
  Basis Set: AUG-CC-PVTZ
    Blend: AUG-CC-PVTZ
  Basis Set: (AUG-CC-PVTZ AUX)
    Blend: AUG-CC-PVTZ-JKFIT
  @DF-RHF Final Energy:  -490.68959612213456
    Total Energy =                       -490.6895961221345033
  //            Monomer A HF           //
    Molecular point group: c1
  Multiplicity = 1
  Basis Set: AUG-CC-PVTZ
    Blend: AUG-CC-PVTZ
  Basis Set: (AUG-CC-PVTZ AUX)
    Blend: AUG-CC-PVTZ-JKFIT
  @DF-RHF Final Energy:  -412.62458172676389
    Total Energy =                       -412.6245817267638927
  //            Monomer B HF           //
    Molecular point group: c1

    Geometry (in Angstrom), charge = 0, multiplicity = 1:

       Center              X                  Y                   Z               Mass
    ------------   -----------------  -----------------  -----------------  -----------------
      Gh(N)          -0.056065611806    -0.983456615133    -1.233450023813    14.003074004430
      Gh(H)          -0.058415611806    -1.994066615133    -1.217590023813     1.007825032230
      Gh(C)          -1.314005611806    -0.365256615133    -1.263380023813    12.000000000000
      Gh(O)          -2.332415611806    -1.035926615133    -1.273240023813    15.994914619570
      Gh(C)          -1.242015611806     1.084673384867    -1.279630023813    12.000000000000
      Gh(H)          -2.157935611806     1.648083384867    -1.322180023813     1.007825032230
      Gh(C)          -0.040385611806     1.694463384867    -1.233710023813    12.000000000000
      Gh(H)           0.065174388194     2.769103384867    -1.235530023813     1.007825032230
      Gh(N)           1.129334388194     0.986903384867    -1.175570023813    14.003074004430
      Gh(H)           2.018524388194     1.453393384867    -1.111720023813     1.007825032230
      Gh(C)           1.187994388194    -0.395206615133    -1.151630023813    12.000000000000
      Gh(O)           2.231204388194    -1.014566615133    -1.073220023813    15.994914619570
         C            0.793724388194     0.114473384867     4.851839976187    12.000000000000
         H            1.310844388194    -0.756516615133     4.474619976187     1.007825032230
         H            1.399344388194     0.901473384867     5.279159976187     1.007825032230
         C           -0.535045611806     0.215063384867     4.802599976187    12.000000000000
         H           -1.147055611806    -0.572416615133     4.385689976187     1.007825032230
         H           -1.046875611806     1.086133384867     5.186599976187     1.007825032230

  Charge       = 0
  Multiplicity = 1
  Basis Set: AUG-CC-PVTZ
    Blend: AUG-CC-PVTZ
  Basis Set: (AUG-CC-PVTZ AUX)
    Blend: AUG-CC-PVTZ-JKFIT

    Orbital Energies [Eh]
    ---------------------

    Doubly Occupied:

       1A    -11.231639     2A    -11.229926     3A     -1.034376
       4A     -0.793829     5A     -0.644500     6A     -0.588119
       7A     -0.508561     8A     -0.376984

  @DF-RHF Final Energy:   -78.06467056688744

   => Energetics <=

    Nuclear Repulsion Energy =             33.4040971434768323
    One-Electron Energy =                -170.1216754288994082
    Two-Electron Energy =                  58.6529077185351326
    Total Energy =                        -78.0646705668874432

  Dipole Moment: [D]
     X:    -0.0010      Y:    -0.0046      Z:     0.0118     Total:     0.0127

    SAPT Results
  --------------------------------------------------------------------------------------------------------
    Electrostatics                 -0.21867444 [mEh]      -0.13722028 [kcal/mol]      -0.57412966 [kJ/mol]
      Elst10,r                     -0.32942512 [mEh]      -0.20671738 [kcal/mol]      -0.86490553 [kJ/mol]
      Elst12,r                      0.11075068 [mEh]       0.06949710 [kcal/mol]       0.29077587 [kJ/mol]

    Exchange                        0.00204206 [mEh]       0.00128141 [kcal/mol]       0.00536143 [kJ/mol]
      Exch10                        0.00227558 [mEh]       0.00142795 [kcal/mol]       0.00597453 [kJ/mol]
      Exch10(S^2)                   0.00227557 [mEh]       0.00142794 [kcal/mol]       0.00597450 [kJ/mol]
      Exch11(S^2)                   0.00003685 [mEh]       0.00002312 [kcal/mol]       0.00009674 [kJ/mol]
      Exch12(S^2)                  -0.00027037 [mEh]      -0.00016966 [kcal/mol]      -0.00070985 [kJ/mol]

    Induction                      -0.01169878 [mEh]      -0.00734110 [kcal/mol]      -0.03071515 [kJ/mol]
      Ind20,r                      -0.01695187 [mEh]      -0.01063746 [kcal/mol]      -0.04450713 [kJ/mol]
      Ind22                         0.00535188 [mEh]       0.00335836 [kcal/mol]       0.01405137 [kJ/mol]
      Exch-Ind20,r                  0.00117742 [mEh]       0.00073884 [kcal/mol]       0.00309132 [kJ/mol]
      Exch-Ind22                   -0.00037172 [mEh]      -0.00023326 [kcal/mol]      -0.00097596 [kJ/mol]
      delta HF,r (2)               -0.00090449 [mEh]      -0.00056758 [kcal/mol]      -0.00237474 [kJ/mol]

    Dispersion                     -0.28126785 [mEh]      -0.17649824 [kcal/mol]      -0.73846863 [kJ/mol]
      Disp20                       -0.30539854 [mEh]      -0.19164048 [kcal/mol]      -0.80182377 [kJ/mol]
      Disp21                        0.07367468 [mEh]       0.04623156 [kcal/mol]       0.19343285 [kJ/mol]
      Disp22 (SDQ)                  0.01473826 [mEh]       0.00924840 [kcal/mol]       0.03869531 [kJ/mol]
      Disp22 (T)                   -0.06313883 [mEh]      -0.03962021 [kcal/mol]      -0.16577097 [kJ/mol]
      Est. Disp22 (T)              -0.06503761 [mEh]      -0.04081172 [kcal/mol]      -0.17075622 [kJ/mol]
      Exch-Disp20                   0.00075536 [mEh]       0.00047400 [kcal/mol]       0.00198320 [kJ/mol]

  Total HF                         -0.34382848 [mEh]      -0.21575563 [kcal/mol]      -0.90272156 [kJ/mol]
  Total SAPT0                      -0.64847167 [mEh]      -0.40692211 [kcal/mol]      -1.70256213 [kJ/mol]
  Total SAPT2                      -0.53297435 [mEh]      -0.33444645 [kcal/mol]      -1.39932396 [kJ/mol]
  Total SAPT2+                     -0.50959901 [mEh]      -0.31977821 [kcal/mol]      -1.33795202 [kJ/mol]

  Special recipe for scaled SAPT0 (see Manual):
    Electrostatics sSAPT0          -0.32942512 [mEh]      -0.20671738 [kcal/mol]      -0.86490553 [kJ/mol]
    Exchange sSAPT0                 0.00227558 [mEh]       0.00142795 [kcal/mol]       0.00597453 [kJ/mol]
    Induction sSAPT0               -0.01667894 [mEh]      -0.01046619 [kcal/mol]      -0.04379056 [kJ/mol]
    Dispersion sSAPT0              -0.30464318 [mEh]      -0.19116648 [kcal/mol]      -0.79984057 [kJ/mol]
  Total sSAPT0                     -0.64847167 [mEh]      -0.40692211 [kcal/mol]      -1.70256213 [kJ/mol]
  --------------------------------------------------------------------------------------------------------

*** Psi4 exiting successfully. Buy a developer a beer!
