                               Psi4 1.4a2.dev224

  ==> Input File <==

--------------------------------------------------------------------------
#Generated by lconvert.py for sapt job

memory 50 GB

molecule  {
0 1
  N      -0.050870   -0.980080    0.033960
  H      -0.053220   -1.990690    0.049820
  C      -1.308810   -0.361880    0.004030
  O      -2.327220   -1.032550   -0.005830
  C      -1.236820    1.088050   -0.012220
  H      -2.152740    1.651460   -0.054770
  C      -0.035190    1.697840    0.033700
  H       0.070370    2.772480    0.031880
  N       1.134530    0.990280    0.091840
  H       2.023720    1.456770    0.155690
  C       1.193190   -0.391830    0.115780
  O       2.236400   -1.011190    0.194190
--
0 1
  C       0.750620    0.056380    4.316620
  H       1.267740   -0.814610    3.939400
  H       1.356230    0.843370    4.743940
  C      -0.578160    0.156970    4.267380
  H      -1.190160   -0.630510    3.850480
  H      -1.089980    1.028040    4.651380
units angstrom
no_reorient
symmetry c1
}

set {
scf_type DF
basis aug-cc-pvtz
freeze_core True
guess SAD
}
energy('sapt2+')
--------------------------------------------------------------------------

  //              Dimer HF             //
    Molecular point group: c1
  Charge       = 0
  Multiplicity = 1
  Basis Set: AUG-CC-PVTZ
    Blend: AUG-CC-PVTZ
  Basis Set: (AUG-CC-PVTZ AUX)
    Blend: AUG-CC-PVTZ-JKFIT
  @DF-RHF Final Energy:  -490.69022371366998
    Total Energy =                       -490.6902237136699796
  //            Monomer A HF           //
    Molecular point group: c1
  Multiplicity = 1
  Basis Set: AUG-CC-PVTZ
    Blend: AUG-CC-PVTZ
  Basis Set: (AUG-CC-PVTZ AUX)
    Blend: AUG-CC-PVTZ-JKFIT
  @DF-RHF Final Energy:  -412.62465408672722
    Total Energy =                       -412.6246540867272188
  //            Monomer B HF           //
    Molecular point group: c1

    Geometry (in Angstrom), charge = 0, multiplicity = 1:

       Center              X                  Y                   Z               Mass
    ------------   -----------------  -----------------  -----------------  -----------------
      Gh(N)          -0.046397929194    -0.971153947721    -0.872672030969    14.003074004430
      Gh(H)          -0.048747929194    -1.981763947721    -0.856812030969     1.007825032230
      Gh(C)          -1.304337929194    -0.352953947721    -0.902602030969    12.000000000000
      Gh(O)          -2.322747929194    -1.023623947721    -0.912462030969    15.994914619570
      Gh(C)          -1.232347929194     1.096976052279    -0.918852030969    12.000000000000
      Gh(H)          -2.148267929194     1.660386052279    -0.961402030969     1.007825032230
      Gh(C)          -0.030717929194     1.706766052279    -0.872932030969    12.000000000000
      Gh(H)           0.074842070806     2.781406052279    -0.874752030969     1.007825032230
      Gh(N)           1.139002070806     0.999206052279    -0.814792030969    14.003074004430
      Gh(H)           2.028192070806     1.465696052279    -0.750942030969     1.007825032230
      Gh(C)           1.197662070806    -0.382903947721    -0.790852030969    12.000000000000
      Gh(O)           2.240872070806    -1.002263947721    -0.712442030969    15.994914619570
         C            0.755092070806     0.065306052279     3.409987969031    12.000000000000
         H            1.272212070806    -0.805683947721     3.032767969031     1.007825032230
         H            1.360702070806     0.852296052279     3.837307969031     1.007825032230
         C           -0.573687929194     0.165896052279     3.360747969031    12.000000000000
         H           -1.185687929194    -0.621583947721     2.943847969031     1.007825032230
         H           -1.085507929194     1.036966052279     3.744747969031     1.007825032230

  Charge       = 0
  Multiplicity = 1
  Basis Set: AUG-CC-PVTZ
    Blend: AUG-CC-PVTZ
  Basis Set: (AUG-CC-PVTZ AUX)
    Blend: AUG-CC-PVTZ-JKFIT

    Orbital Energies [Eh]
    ---------------------

    Doubly Occupied:

       1A    -11.231585     2A    -11.229872     3A     -1.034331
       4A     -0.793790     5A     -0.644454     6A     -0.588076
       7A     -0.508521     8A     -0.376977

  @DF-RHF Final Energy:   -78.06470891199336

   => Energetics <=

    Nuclear Repulsion Energy =             33.4040656780556233
    One-Electron Energy =                -170.1223417696043327
    Two-Electron Energy =                  58.6535671795553597
    Total Energy =                        -78.0647089119933639

  Dipole Moment: [D]
     X:    -0.0010      Y:    -0.0052      Z:     0.0113     Total:     0.0125

    SAPT Results
  --------------------------------------------------------------------------------------------------------
    Electrostatics                 -0.89623685 [mEh]      -0.56239712 [kcal/mol]      -2.35306954 [kJ/mol]
      Elst10,r                     -1.28780363 [mEh]      -0.80810898 [kcal/mol]      -3.38112796 [kJ/mol]
      Elst12,r                      0.39156678 [mEh]       0.24571186 [kcal/mol]       1.02805843 [kJ/mol]

    Exchange                        0.55361775 [mEh]       0.34740038 [kcal/mol]       1.45352320 [kJ/mol]
      Exch10                        0.57129714 [mEh]       0.35849437 [kcal/mol]       1.49994044 [kJ/mol]
      Exch10(S^2)                   0.57095494 [mEh]       0.35827964 [kcal/mol]       1.49904199 [kJ/mol]
      Exch11(S^2)                   0.01801475 [mEh]       0.01130443 [kcal/mol]       0.04729773 [kJ/mol]
      Exch12(S^2)                  -0.03569415 [mEh]      -0.02239842 [kcal/mol]      -0.09371497 [kJ/mol]

    Induction                      -0.12191572 [mEh]      -0.07650327 [kcal/mol]      -0.32008969 [kJ/mol]
      Ind20,r                      -0.44781657 [mEh]      -0.28100914 [kcal/mol]      -1.17574226 [kJ/mol]
      Ind22                         0.08531317 [mEh]       0.05353482 [kcal/mol]       0.22398969 [kJ/mol]
      Exch-Ind20,r                  0.33079997 [mEh]       0.20758012 [kcal/mol]       0.86851521 [kJ/mol]
      Exch-Ind22                   -0.06302043 [mEh]      -0.03954592 [kcal/mol]      -0.16546012 [kJ/mol]
      delta HF,r (2)               -0.02719186 [mEh]      -0.01706315 [kcal/mol]      -0.07139221 [kJ/mol]

    Dispersion                     -2.32882071 [mEh]      -1.46135706 [kcal/mol]      -6.11431794 [kJ/mol]
      Disp20                       -2.59568033 [mEh]      -1.62881400 [kcal/mol]      -6.81495776 [kJ/mol]
      Disp21                        0.54361478 [mEh]       0.34112343 [kcal/mol]       1.42726041 [kJ/mol]
      Disp22 (SDQ)                  0.13592131 [mEh]       0.08529191 [kcal/mol]       0.35686136 [kJ/mol]
      Disp22 (T)                   -0.49535495 [mEh]      -0.31083993 [kcal/mol]      -1.30055425 [kJ/mol]
      Est. Disp22 (T)              -0.53869105 [mEh]      -0.33803374 [kcal/mol]      -1.41433316 [kJ/mol]
      Exch-Disp20                   0.12601457 [mEh]       0.07907534 [kcal/mol]       0.33085122 [kJ/mol]

  Total HF                         -0.86071495 [mEh]      -0.54010678 [kcal/mol]      -2.25980679 [kJ/mol]
  Total SAPT0                      -3.33038070 [mEh]      -2.08984544 [kcal/mol]      -8.74391333 [kJ/mol]
  Total SAPT2                      -2.93420058 [mEh]      -1.84123866 [kcal/mol]      -7.70374257 [kJ/mol]
  Total SAPT2+                     -2.79335554 [mEh]      -1.75285707 [kcal/mol]      -7.33395397 [kJ/mol]

  Special recipe for scaled SAPT0 (see Manual):
    Electrostatics sSAPT0          -1.28780363 [mEh]      -0.80810898 [kcal/mol]      -3.38112796 [kJ/mol]
    Exchange sSAPT0                 0.57129714 [mEh]       0.35849437 [kcal/mol]       1.49994044 [kJ/mol]
    Induction sSAPT0               -0.14361331 [mEh]      -0.09011872 [kcal/mol]      -0.37705670 [kJ/mol]
    Dispersion sSAPT0              -2.46943904 [mEh]      -1.54959639 [kcal/mol]      -6.48351130 [kJ/mol]
  Total sSAPT0                     -3.32955884 [mEh]      -2.08932972 [kcal/mol]      -8.74175553 [kJ/mol]
  --------------------------------------------------------------------------------------------------------

*** Psi4 exiting successfully. Buy a developer a beer!
