                               Psi4 1.4a2.dev224

  ==> Input File <==

--------------------------------------------------------------------------
#Generated by lconvert.py for sapt job

memory 50 GB

molecule  {
0 1
  N       1.381380   -0.000230    0.131460
  C       0.679350   -1.140240    0.092080
  H       1.258720   -2.054960    0.125880
  C      -0.709720   -1.193110    0.006660
  H      -1.214090   -2.148560   -0.025310
  C      -1.421610    0.000130   -0.040820
  H      -2.500700    0.000260   -0.109170
  C      -0.709400    1.193180    0.006520
  H      -1.213510    2.148750   -0.025530
  C       0.679650    1.139960    0.091890
  H       1.259260    2.054510    0.125500
--
0 1
  C       0.027820    0.666480    4.400330
  H       0.938300    1.225960    4.241220
  H      -0.881720    1.228880    4.557290
  C       0.028160   -0.666210    4.400460
  H       0.938890   -1.225290    4.241450
  H      -0.881130   -1.229030    4.557550
units angstrom
no_reorient
symmetry c1
}

set {
scf_type DF
basis aug-cc-pvtz
freeze_core True
guess SAD
}
energy('sapt2+')
--------------------------------------------------------------------------

  //              Dimer HF             //
    Molecular point group: c1
  Charge       = 0
  Multiplicity = 1
  Basis Set: AUG-CC-PVTZ
    Blend: AUG-CC-PVTZ
  Basis Set: (AUG-CC-PVTZ AUX)
    Blend: AUG-CC-PVTZ-JKFIT
  @DF-RHF Final Energy:  -324.84287348846237
    Total Energy =                       -324.8428734884623736
  //            Monomer A HF           //
    Molecular point group: c1
  Multiplicity = 1
  Basis Set: AUG-CC-PVTZ
    Blend: AUG-CC-PVTZ
  Basis Set: (AUG-CC-PVTZ AUX)
    Blend: AUG-CC-PVTZ-JKFIT
  @DF-RHF Final Energy:  -246.77880079610350
    Total Energy =                       -246.7788007961034964
  //            Monomer B HF           //
    Molecular point group: c1

    Geometry (in Angstrom), charge = 0, multiplicity = 1:

       Center              X                  Y                   Z               Mass
    ------------   -----------------  -----------------  -----------------  -----------------
      Gh(N)           1.382121357570    -0.000226108860    -1.056075487329    14.003074004430
      Gh(C)           0.680091357570    -1.140236108860    -1.095455487329    12.000000000000
      Gh(H)           1.259461357570    -2.054956108860    -1.061655487329     1.007825032230
      Gh(C)          -0.708978642430    -1.193106108860    -1.180875487329    12.000000000000
      Gh(H)          -1.213348642430    -2.148556108860    -1.212845487329     1.007825032230
      Gh(C)          -1.420868642430     0.000133891140    -1.228355487329    12.000000000000
      Gh(H)          -2.499958642430     0.000263891140    -1.296705487329     1.007825032230
      Gh(C)          -0.708658642430     1.193183891140    -1.181015487329    12.000000000000
      Gh(H)          -1.212768642430     2.148753891140    -1.213065487329     1.007825032230
      Gh(C)           0.680391357570     1.139963891140    -1.095645487329    12.000000000000
      Gh(H)           1.260001357570     2.054513891140    -1.062035487329     1.007825032230
         C            0.028561357570     0.666483891140     3.212794512671    12.000000000000
         H            0.939041357570     1.225963891140     3.053684512671     1.007825032230
         H           -0.880978642430     1.228883891140     3.369754512671     1.007825032230
         C            0.028901357570    -0.666206108860     3.212924512671    12.000000000000
         H            0.939631357570    -1.225286108860     3.053914512671     1.007825032230
         H           -0.880388642430    -1.229026108860     3.370014512671     1.007825032230

  Charge       = 0
  Multiplicity = 1
  Basis Set: AUG-CC-PVTZ
    Blend: AUG-CC-PVTZ
  Basis Set: (AUG-CC-PVTZ AUX)
    Blend: AUG-CC-PVTZ-JKFIT

    Orbital Energies [Eh]
    ---------------------

    Doubly Occupied:

       1A    -11.231251     2A    -11.229530     3A     -1.034745
       4A     -0.793390     5A     -0.645241     6A     -0.587481
       7A     -0.508859     8A     -0.377128

  @DF-RHF Final Energy:   -78.06474468015433

   => Energetics <=

    Nuclear Repulsion Energy =             33.4239362907177764
    One-Electron Energy =                -170.1621148637907481
    Two-Electron Energy =                  58.6734338929186237
    Total Energy =                        -78.0647446801543339

  Dipole Moment: [D]
     X:    -0.0002      Y:     0.0000      Z:    -0.0023     Total:     0.0023

    SAPT Results
  --------------------------------------------------------------------------------------------------------
    Electrostatics                  0.11929548 [mEh]       0.07485904 [kcal/mol]       0.31321024 [kJ/mol]
      Elst10,r                      0.27607559 [mEh]       0.17324005 [kcal/mol]       0.72483637 [kJ/mol]
      Elst12,r                     -0.15678011 [mEh]      -0.09838101 [kcal/mol]      -0.41162613 [kJ/mol]

    Exchange                        0.49924963 [mEh]       0.31328387 [kcal/mol]       1.31077973 [kJ/mol]
      Exch10                        0.49725635 [mEh]       0.31203307 [kcal/mol]       1.30554637 [kJ/mol]
      Exch10(S^2)                   0.49701189 [mEh]       0.31187967 [kcal/mol]       1.30490453 [kJ/mol]
      Exch11(S^2)                   0.02295733 [mEh]       0.01440594 [kcal/mol]       0.06027447 [kJ/mol]
      Exch12(S^2)                  -0.02096405 [mEh]      -0.01315514 [kcal/mol]      -0.05504112 [kJ/mol]

    Induction                      -0.09405902 [mEh]      -0.05902293 [kcal/mol]      -0.24695192 [kJ/mol]
      Ind20,r                      -0.27769571 [mEh]      -0.17425669 [kcal/mol]      -0.72908999 [kJ/mol]
      Ind22                         0.03069412 [mEh]       0.01926085 [kcal/mol]       0.08058740 [kJ/mol]
      Exch-Ind20,r                  0.21178569 [mEh]       0.13289753 [kcal/mol]       0.55604327 [kJ/mol]
      Exch-Ind22                   -0.02340899 [mEh]      -0.01468936 [kcal/mol]      -0.06146029 [kJ/mol]
      delta HF,r (2)               -0.03543413 [mEh]      -0.02223525 [kcal/mol]      -0.09303230 [kJ/mol]

    Dispersion                     -2.00297526 [mEh]      -1.25688595 [kcal/mol]      -5.25881082 [kJ/mol]
      Disp20                       -2.43631491 [mEh]      -1.52881069 [kcal/mol]      -6.39654391 [kJ/mol]
      Disp21                        0.56741502 [mEh]       0.35605830 [kcal/mol]       1.48974792 [kJ/mol]
      Disp22 (SDQ)                  0.23887762 [mEh]       0.14989797 [kcal/mol]       0.62717310 [kJ/mol]
      Disp22 (T)                   -0.46559569 [mEh]      -0.29216571 [kcal/mol]      -1.22242131 [kJ/mol]
      Est. Disp22 (T)              -0.51138264 [mEh]      -0.32089745 [kcal/mol]      -1.34263494 [kJ/mol]
      Exch-Disp20                   0.13842966 [mEh]       0.08686592 [kcal/mol]       0.36344702 [kJ/mol]

  Total HF                          0.67198780 [mEh]       0.42167871 [kcal/mol]       1.76430371 [kJ/mol]
  Total SAPT0                      -1.62589745 [mEh]      -1.02026606 [kcal/mol]      -4.26879318 [kJ/mol]
  Total SAPT2                      -1.77339916 [mEh]      -1.11282477 [kcal/mol]      -4.65605884 [kJ/mol]
  Total SAPT2+                     -1.47848916 [mEh]      -0.92776596 [kcal/mol]      -3.88177277 [kJ/mol]

  Special recipe for scaled SAPT0 (see Manual):
    Electrostatics sSAPT0           0.27607559 [mEh]       0.17324005 [kcal/mol]       0.72483637 [kJ/mol]
    Exchange sSAPT0                 0.49725635 [mEh]       0.31203307 [kcal/mol]       1.30554637 [kJ/mol]
    Induction sSAPT0               -0.10103148 [mEh]      -0.06339821 [kcal/mol]      -0.26525812 [kJ/mol]
    Dispersion sSAPT0              -2.29768088 [mEh]      -1.44181652 [kcal/mol]      -6.03256032 [kJ/mol]
  Total sSAPT0                     -1.62538042 [mEh]      -1.01994161 [kcal/mol]      -4.26743570 [kJ/mol]
  --------------------------------------------------------------------------------------------------------

*** Psi4 exiting successfully. Buy a developer a beer!
