                               Psi4 1.4a2.dev224

  ==> Input File <==

--------------------------------------------------------------------------
#Generated by lconvert.py for sapt job

memory 50 GB

molecule  {
0 1
  N       1.381380   -0.000230    0.131460
  C       0.679350   -1.140240    0.092080
  H       1.258720   -2.054960    0.125880
  C      -0.709720   -1.193110    0.006660
  H      -1.214090   -2.148560   -0.025310
  C      -1.421610    0.000130   -0.040820
  H      -2.500700    0.000260   -0.109170
  C      -0.709400    1.193180    0.006520
  H      -1.213510    2.148750   -0.025530
  C       0.679650    1.139960    0.091890
  H       1.259260    2.054510    0.125500
--
0 1
  C       0.036500    0.666520    5.364150
  H       0.946970    1.226010    5.205030
  H      -0.873050    1.228930    5.521110
  C       0.036830   -0.666170    5.364280
  H       0.947570   -1.225250    5.205270
  H      -0.872460   -1.228990    5.521370
units angstrom
no_reorient
symmetry c1
}

set {
scf_type DF
basis aug-cc-pvtz
freeze_core True
guess SAD
}
energy('sapt2+')
--------------------------------------------------------------------------

  //              Dimer HF             //
    Molecular point group: c1
  Charge       = 0
  Multiplicity = 1
  Basis Set: AUG-CC-PVTZ
    Blend: AUG-CC-PVTZ
  Basis Set: (AUG-CC-PVTZ AUX)
    Blend: AUG-CC-PVTZ-JKFIT
  @DF-RHF Final Energy:  -324.84323001861975
    Total Energy =                       -324.8432300186197494
  //            Monomer A HF           //
    Molecular point group: c1
  Multiplicity = 1
  Basis Set: AUG-CC-PVTZ
    Blend: AUG-CC-PVTZ
  Basis Set: (AUG-CC-PVTZ AUX)
    Blend: AUG-CC-PVTZ-JKFIT
  @DF-RHF Final Energy:  -246.77877444571664
    Total Energy =                       -246.7787744457166355
  //            Monomer B HF           //
    Molecular point group: c1

    Geometry (in Angstrom), charge = 0, multiplicity = 1:

       Center              X                  Y                   Z               Mass
    ------------   -----------------  -----------------  -----------------  -----------------
      Gh(N)           1.379850380606    -0.000236768906    -1.308398590525    14.003074004430
      Gh(C)           0.677820380606    -1.140246768906    -1.347778590525    12.000000000000
      Gh(H)           1.257190380606    -2.054966768906    -1.313978590525     1.007825032230
      Gh(C)          -0.711249619394    -1.193116768906    -1.433198590525    12.000000000000
      Gh(H)          -1.215619619394    -2.148566768906    -1.465168590525     1.007825032230
      Gh(C)          -1.423139619394     0.000123231094    -1.480678590525    12.000000000000
      Gh(H)          -2.502229619394     0.000253231094    -1.549028590525     1.007825032230
      Gh(C)          -0.710929619394     1.193173231094    -1.433338590525    12.000000000000
      Gh(H)          -1.215039619394     2.148743231094    -1.465388590525     1.007825032230
      Gh(C)           0.678120380606     1.139953231094    -1.347968590525    12.000000000000
      Gh(H)           1.257730380606     2.054503231094    -1.314358590525     1.007825032230
         C            0.034970380606     0.666513231094     3.924291409475    12.000000000000
         H            0.945440380606     1.226003231094     3.765171409475     1.007825032230
         H           -0.874579619394     1.228923231094     4.081251409475     1.007825032230
         C            0.035300380606    -0.666176768906     3.924421409475    12.000000000000
         H            0.946040380606    -1.225256768906     3.765411409475     1.007825032230
         H           -0.873989619394    -1.228996768906     4.081511409475     1.007825032230

  Charge       = 0
  Multiplicity = 1
  Basis Set: AUG-CC-PVTZ
    Blend: AUG-CC-PVTZ
  Basis Set: (AUG-CC-PVTZ AUX)
    Blend: AUG-CC-PVTZ-JKFIT

    Orbital Energies [Eh]
    ---------------------

    Doubly Occupied:

       1A    -11.231285     2A    -11.229565     3A     -1.034771
       4A     -0.793415     5A     -0.645269     6A     -0.587506
       7A     -0.508886     8A     -0.377130

  @DF-RHF Final Energy:   -78.06471781640680

   => Energetics <=

    Nuclear Repulsion Energy =             33.4238598898007027
    One-Electron Energy =                -170.1615050495521189
    Two-Electron Energy =                  58.6729273433446252
    Total Energy =                        -78.0647178164067981

  Dipole Moment: [D]
     X:    -0.0004      Y:     0.0000      Z:    -0.0020     Total:     0.0021

    SAPT Results
  --------------------------------------------------------------------------------------------------------
    Electrostatics                  0.16872246 [mEh]       0.10587494 [kcal/mol]       0.44298075 [kJ/mol]
      Elst10,r                      0.26024533 [mEh]       0.16330641 [kcal/mol]       0.68327403 [kJ/mol]
      Elst12,r                     -0.09152288 [mEh]      -0.05743147 [kcal/mol]      -0.24029328 [kJ/mol]

    Exchange                        0.02561977 [mEh]       0.01607665 [kcal/mol]       0.06726470 [kJ/mol]
      Exch10                        0.02491751 [mEh]       0.01563597 [kcal/mol]       0.06542090 [kJ/mol]
      Exch10(S^2)                   0.02491659 [mEh]       0.01563540 [kcal/mol]       0.06541850 [kJ/mol]
      Exch11(S^2)                   0.00072266 [mEh]       0.00045348 [kcal/mol]       0.00189736 [kJ/mol]
      Exch12(S^2)                  -0.00002040 [mEh]      -0.00001280 [kcal/mol]      -0.00005356 [kJ/mol]

    Induction                      -0.02032883 [mEh]      -0.01275653 [kcal/mol]      -0.05337334 [kJ/mol]
      Ind20,r                      -0.03160829 [mEh]      -0.01983450 [kcal/mol]      -0.08298755 [kJ/mol]
      Ind22                         0.00368053 [mEh]       0.00230957 [kcal/mol]       0.00966323 [kJ/mol]
      Exch-Ind20,r                  0.00936111 [mEh]       0.00587418 [kcal/mol]       0.02457758 [kJ/mol]
      Exch-Ind22                   -0.00109003 [mEh]      -0.00068400 [kcal/mol]      -0.00286186 [kJ/mol]
      delta HF,r (2)               -0.00067215 [mEh]      -0.00042178 [kcal/mol]      -0.00176474 [kJ/mol]

    Dispersion                     -0.59654266 [mEh]      -0.37433617 [kcal/mol]      -1.56622253 [kJ/mol]
      Disp20                       -0.69974000 [mEh]      -0.43909348 [kcal/mol]      -1.83716711 [kJ/mol]
      Disp21                        0.17944744 [mEh]       0.11260497 [kcal/mol]       0.47113920 [kJ/mol]
      Disp22 (SDQ)                  0.06294994 [mEh]       0.03950169 [kcal/mol]       0.16527506 [kJ/mol]
      Disp22 (T)                   -0.14121020 [mEh]      -0.08861074 [kcal/mol]      -0.37074732 [kJ/mol]
      Est. Disp22 (T)              -0.14916436 [mEh]      -0.09360205 [kcal/mol]      -0.39163098 [kJ/mol]
      Exch-Disp20                   0.00996432 [mEh]       0.00625270 [kcal/mol]       0.02616131 [kJ/mol]

  Total HF                          0.26224350 [mEh]       0.16456028 [kcal/mol]       0.68852022 [kJ/mol]
  Total SAPT0                      -0.42753218 [mEh]      -0.26828049 [kcal/mol]      -1.12248558 [kJ/mol]
  Total SAPT2                      -0.51576229 [mEh]      -0.32364572 [kcal/mol]      -1.35413369 [kJ/mol]
  Total SAPT2+                     -0.42252926 [mEh]      -0.26514111 [kcal/mol]      -1.10935042 [kJ/mol]

  Special recipe for scaled SAPT0 (see Manual):
    Electrostatics sSAPT0           0.26024533 [mEh]       0.16330641 [kcal/mol]       0.68327403 [kJ/mol]
    Exchange sSAPT0                 0.02491751 [mEh]       0.01563597 [kcal/mol]       0.06542090 [kJ/mol]
    Induction sSAPT0               -0.02291830 [mEh]      -0.01438145 [kcal/mol]      -0.06017200 [kJ/mol]
    Dispersion sSAPT0              -0.68977458 [mEh]      -0.43284009 [kcal/mol]      -1.81100292 [kJ/mol]
  Total sSAPT0                     -0.42753005 [mEh]      -0.26827916 [kcal/mol]      -1.12247999 [kJ/mol]
  --------------------------------------------------------------------------------------------------------

*** Psi4 exiting successfully. Buy a developer a beer!
