                               Psi4 1.4a2.dev224

  ==> Input File <==

--------------------------------------------------------------------------
#Generated by lconvert.py for sapt job

memory 50 GB

molecule  {
0 1
  N       1.381380   -0.000230    0.131460
  C       0.679350   -1.140240    0.092080
  H       1.258720   -2.054960    0.125880
  C      -0.709720   -1.193110    0.006660
  H      -1.214090   -2.148560   -0.025310
  C      -1.421610    0.000130   -0.040820
  H      -2.500700    0.000260   -0.109170
  C      -0.709400    1.193180    0.006520
  H      -1.213510    2.148750   -0.025530
  C       0.679650    1.139960    0.091890
  H       1.259260    2.054510    0.125500
--
0 1
  C       0.045170    0.666560    6.327960
  H       0.955650    1.226050    6.168850
  H      -0.864370    1.228970    6.484920
  C       0.045510   -0.666120    6.328090
  H       0.956240   -1.225210    6.169080
  H      -0.863780   -1.228950    6.485180
units angstrom
no_reorient
symmetry c1
}

set {
scf_type DF
basis aug-cc-pvtz
freeze_core True
guess SAD
}
energy('sapt2+')
--------------------------------------------------------------------------

  //              Dimer HF             //
    Molecular point group: c1
  Charge       = 0
  Multiplicity = 1
  Basis Set: AUG-CC-PVTZ
    Blend: AUG-CC-PVTZ
  Basis Set: (AUG-CC-PVTZ AUX)
    Blend: AUG-CC-PVTZ-JKFIT
  @DF-RHF Final Energy:  -324.84333602524964
    Total Energy =                       -324.8433360252496414
  //            Monomer A HF           //
    Molecular point group: c1
  Multiplicity = 1
  Basis Set: AUG-CC-PVTZ
    Blend: AUG-CC-PVTZ
  Basis Set: (AUG-CC-PVTZ AUX)
    Blend: AUG-CC-PVTZ-JKFIT
  @DF-RHF Final Energy:  -246.77876267320789
    Total Energy =                       -246.7787626732078934
  //            Monomer B HF           //
    Molecular point group: c1

    Geometry (in Angstrom), charge = 0, multiplicity = 1:

       Center              X                  Y                   Z               Mass
    ------------   -----------------  -----------------  -----------------  -----------------
      Gh(N)           1.377579215393    -0.000248361429    -1.560719264020    14.003074004430
      Gh(C)           0.675549215393    -1.140258361429    -1.600099264020    12.000000000000
      Gh(H)           1.254919215393    -2.054978361429    -1.566299264020     1.007825032230
      Gh(C)          -0.713520784607    -1.193128361429    -1.685519264020    12.000000000000
      Gh(H)          -1.217890784607    -2.148578361429    -1.717489264020     1.007825032230
      Gh(C)          -1.425410784607     0.000111638571    -1.732999264020    12.000000000000
      Gh(H)          -2.504500784607     0.000241638571    -1.801349264020     1.007825032230
      Gh(C)          -0.713200784607     1.193161638571    -1.685659264020    12.000000000000
      Gh(H)          -1.217310784607     2.148731638571    -1.717709264020     1.007825032230
      Gh(C)           0.675849215393     1.139941638571    -1.600289264020    12.000000000000
      Gh(H)           1.255459215393     2.054491638571    -1.566679264020     1.007825032230
         C            0.041369215393     0.666541638571     4.635780735980    12.000000000000
         H            0.951849215393     1.226031638571     4.476670735980     1.007825032230
         H           -0.868170784607     1.228951638571     4.792740735980     1.007825032230
         C            0.041709215393    -0.666138361429     4.635910735980    12.000000000000
         H            0.952439215393    -1.225228361429     4.476900735980     1.007825032230
         H           -0.867580784607    -1.228968361429     4.793000735980     1.007825032230

  Charge       = 0
  Multiplicity = 1
  Basis Set: AUG-CC-PVTZ
    Blend: AUG-CC-PVTZ
  Basis Set: (AUG-CC-PVTZ AUX)
    Blend: AUG-CC-PVTZ-JKFIT

    Orbital Energies [Eh]
    ---------------------

    Doubly Occupied:

       1A    -11.231286     2A    -11.229565     3A     -1.034776
       4A     -0.793417     5A     -0.645272     6A     -0.587511
       7A     -0.508886     8A     -0.377131

  @DF-RHF Final Energy:   -78.06471105136046

   => Energetics <=

    Nuclear Repulsion Energy =             33.4239844456542556
    One-Electron Energy =                -170.1617069256133163
    Two-Electron Energy =                  58.6730114285986204
    Total Energy =                        -78.0647110513604616

  Dipole Moment: [D]
     X:    -0.0005      Y:     0.0000      Z:    -0.0021     Total:     0.0022

    SAPT Results
  --------------------------------------------------------------------------------------------------------
    Electrostatics                  0.09634667 [mEh]       0.06045845 [kcal/mol]       0.25295815 [kJ/mol]
      Elst10,r                      0.14451836 [mEh]       0.09068664 [kcal/mol]       0.37943291 [kJ/mol]
      Elst12,r                     -0.04817169 [mEh]      -0.03022819 [kcal/mol]      -0.12647476 [kJ/mol]

    Exchange                        0.00117422 [mEh]       0.00073683 [kcal/mol]       0.00308290 [kJ/mol]
      Exch10                        0.00110189 [mEh]       0.00069145 [kcal/mol]       0.00289301 [kJ/mol]
      Exch10(S^2)                   0.00110189 [mEh]       0.00069144 [kcal/mol]       0.00289301 [kJ/mol]
      Exch11(S^2)                   0.00000221 [mEh]       0.00000139 [kcal/mol]       0.00000581 [kJ/mol]
      Exch12(S^2)                   0.00007011 [mEh]       0.00004400 [kcal/mol]       0.00018408 [kJ/mol]

    Induction                      -0.00707384 [mEh]      -0.00443890 [kcal/mol]      -0.01857237 [kJ/mol]
      Ind20,r                      -0.00837124 [mEh]      -0.00525303 [kcal/mol]      -0.02197869 [kJ/mol]
      Ind22                         0.00089598 [mEh]       0.00056224 [kcal/mol]       0.00235240 [kJ/mol]
      Exch-Ind20,r                  0.00045679 [mEh]       0.00028664 [kcal/mol]       0.00119929 [kJ/mol]
      Exch-Ind22                   -0.00004889 [mEh]      -0.00003068 [kcal/mol]      -0.00012836 [kJ/mol]
      delta HF,r (2)               -0.00000648 [mEh]      -0.00000407 [kcal/mol]      -0.00001702 [kJ/mol]

    Dispersion                     -0.21350479 [mEh]      -0.13397628 [kcal/mol]      -0.56055675 [kJ/mol]
      Disp20                       -0.24969497 [mEh]      -0.15668596 [kcal/mol]      -0.65557406 [kJ/mol]
      Disp21                        0.06861418 [mEh]       0.04305605 [kcal/mol]       0.18014651 [kJ/mol]
      Disp22 (SDQ)                  0.02036814 [mEh]       0.01278120 [kcal/mol]       0.05347653 [kJ/mol]
      Disp22 (T)                   -0.05185011 [mEh]      -0.03253643 [kcal/mol]      -0.13613244 [kJ/mol]
      Est. Disp22 (T)              -0.05343024 [mEh]      -0.03352798 [kcal/mol]      -0.14028108 [kJ/mol]
      Exch-Disp20                   0.00063811 [mEh]       0.00040042 [kcal/mol]       0.00167536 [kJ/mol]

  Total HF                          0.13769932 [mEh]       0.08640763 [kcal/mol]       0.36152951 [kJ/mol]
  Total SAPT0                      -0.11135754 [mEh]      -0.06987791 [kcal/mol]      -0.29236919 [kJ/mol]
  Total SAPT2                      -0.15860982 [mEh]      -0.09952916 [kcal/mol]      -0.41643002 [kJ/mol]
  Total SAPT2+                     -0.12305775 [mEh]      -0.07721990 [kcal/mol]      -0.32308807 [kJ/mol]

  Special recipe for scaled SAPT0 (see Manual):
    Electrostatics sSAPT0           0.14451836 [mEh]       0.09068664 [kcal/mol]       0.37943291 [kJ/mol]
    Exchange sSAPT0                 0.00110189 [mEh]       0.00069145 [kcal/mol]       0.00289301 [kJ/mol]
    Induction sSAPT0               -0.00792093 [mEh]      -0.00497046 [kcal/mol]      -0.02079641 [kJ/mol]
    Dispersion sSAPT0              -0.24905686 [mEh]      -0.15628554 [kcal/mol]      -0.65389870 [kJ/mol]
  Total sSAPT0                     -0.11135754 [mEh]      -0.06987791 [kcal/mol]      -0.29236919 [kJ/mol]
  --------------------------------------------------------------------------------------------------------

*** Psi4 exiting successfully. Buy a developer a beer!
