                               Psi4 1.4a2.dev224

  ==> Input File <==

--------------------------------------------------------------------------
#Generated by lconvert.py for sapt job

memory 60 GB

molecule  {
0 1
  C      -2.533310   -0.294880    0.713150
  H      -2.563630   -0.977080   -0.136420
  H      -2.566980   -0.895880    1.621730
  H      -3.434430    0.315960    0.684100
  C      -1.271880    0.557660    0.674360
  H      -1.271030    1.256570    1.514320
  H      -1.266630    1.167900   -0.231830
  C      -0.000140   -0.278420    0.719600
  H      -0.000160   -0.887230    1.628640
  H      -0.000360   -0.980710   -0.119400
  C       1.271890    0.557380    0.674060
  H       1.270970    1.256630    1.513710
  H       1.266640    1.167180   -0.232390
  C       2.533400   -0.294940    0.713280
  H       2.563920   -0.977770   -0.135780
  H       3.434310    0.316250    0.683600
  H       2.567560   -0.895210    1.622330
--
0 1
  C       2.533550    0.252990    6.576220
  H       2.568140    0.852800    5.666890
  H       2.564060    0.936200    7.424960
  H       3.434230   -0.358510    6.606430
  C       1.271720   -0.598890    6.615520
  H       1.266280   -1.208620    7.522020
  H       1.270590   -1.298250    5.775940
  C      -0.000050    0.237200    6.569910
  H      -0.000200    0.939510    7.408890
  H       0.000030    0.845980    5.660840
  C      -1.271810   -0.598940    6.615180
  H      -1.266430   -1.209050    7.521430
  H      -1.270700   -1.297960    5.775310
  C      -2.533530    0.253110    6.576200
  H      -2.567720    0.853640    5.667320
  H      -3.434330   -0.358190    6.605710
  H      -2.564070    0.935700    7.425460
units angstrom
no_reorient
symmetry c1
}

set {
scf_type DF
basis aug-cc-pvtz
freeze_core True
guess SAD
}
energy('sapt2+')
--------------------------------------------------------------------------

  //              Dimer HF             //
    Molecular point group: c1
  Charge       = 0
  Multiplicity = 1
  Basis Set: AUG-CC-PVTZ
    Blend: AUG-CC-PVTZ
  Basis Set: (AUG-CC-PVTZ AUX)
    Blend: AUG-CC-PVTZ-JKFIT
  @DF-RHF Final Energy:  -392.80876306816202
    Total Energy =                       -392.8087630681619657
  //            Monomer A HF           //
    Molecular point group: c1
  Multiplicity = 1
  Basis Set: AUG-CC-PVTZ
    Blend: AUG-CC-PVTZ
  Basis Set: (AUG-CC-PVTZ AUX)
    Blend: AUG-CC-PVTZ-JKFIT
  @DF-RHF Final Energy:  -196.40439198882106
    Total Energy =                       -196.4043919888210610
  //            Monomer B HF           //
    Molecular point group: c1

    Geometry (in Angstrom), charge = 0, multiplicity = 1:

       Center              X                  Y                   Z               Mass
    ------------   -----------------  -----------------  -----------------  -----------------
      Gh(C)          -2.533297103413    -0.274095900405    -2.931597007467    12.000000000000
      Gh(H)          -2.563617103413    -0.956295900405    -3.781167007467     1.007825032230
      Gh(H)          -2.566967103413    -0.875095900405    -2.023017007467     1.007825032230
      Gh(H)          -3.434417103413     0.336744099595    -2.960647007467     1.007825032230
      Gh(C)          -1.271867103413     0.578444099595    -2.970387007467    12.000000000000
      Gh(H)          -1.271017103413     1.277354099595    -2.130427007467     1.007825032230
      Gh(H)          -1.266617103413     1.188684099595    -3.876577007467     1.007825032230
      Gh(C)          -0.000127103413    -0.257635900405    -2.925147007467    12.000000000000
      Gh(H)          -0.000147103413    -0.866445900405    -2.016107007467     1.007825032230
      Gh(H)          -0.000347103413    -0.959925900405    -3.764147007467     1.007825032230
      Gh(C)           1.271902896587     0.578164099595    -2.970687007467    12.000000000000
      Gh(H)           1.270982896587     1.277414099595    -2.131037007467     1.007825032230
      Gh(H)           1.266652896587     1.187964099595    -3.877137007467     1.007825032230
      Gh(C)           2.533412896587    -0.274155900405    -2.931467007467    12.000000000000
      Gh(H)           2.563932896587    -0.956985900405    -3.780527007467     1.007825032230
      Gh(H)           3.434322896587     0.337034099595    -2.961147007467     1.007825032230
      Gh(H)           2.567572896587    -0.874425900405    -2.022417007467     1.007825032230
         C            2.533562896587     0.273774099595     2.931472992533    12.000000000000
         H            2.568152896587     0.873584099595     2.022142992533     1.007825032230
         H            2.564072896587     0.956984099595     3.780212992533     1.007825032230
         H            3.434242896587    -0.337725900405     2.961682992533     1.007825032230
         C            1.271732896587    -0.578105900405     2.970772992533    12.000000000000
         H            1.266292896587    -1.187835900405     3.877272992533     1.007825032230
         H            1.270602896587    -1.277465900405     2.131192992533     1.007825032230
         C           -0.000037103413     0.257984099595     2.925162992533    12.000000000000
         H           -0.000187103413     0.960294099595     3.764142992533     1.007825032230
         H            0.000042896587     0.866764099595     2.016092992533     1.007825032230
         C           -1.271797103413    -0.578155900405     2.970432992533    12.000000000000
         H           -1.266417103413    -1.188265900405     3.876682992533     1.007825032230
         H           -1.270687103413    -1.277175900405     2.130562992533     1.007825032230
         C           -2.533517103413     0.273894099595     2.931452992533    12.000000000000
         H           -2.567707103413     0.874424099595     2.022572992533     1.007825032230
         H           -3.434317103413    -0.337405900405     2.960962992533     1.007825032230
         H           -2.564057103413     0.956484099595     3.780712992533     1.007825032230

  Charge       = 0
  Multiplicity = 1
  Basis Set: AUG-CC-PVTZ
    Blend: AUG-CC-PVTZ
  Basis Set: (AUG-CC-PVTZ AUX)
    Blend: AUG-CC-PVTZ-JKFIT

    Orbital Energies [Eh]
    ---------------------

    Doubly Occupied:

       1A    -11.212588     2A    -11.212516     3A    -11.210146
       4A    -11.207069     5A    -11.207067     6A     -1.081207
       7A     -1.015342     8A     -0.918974     9A     -0.819819
      10A     -0.784968    11A     -0.647297    12A     -0.598307
      13A     -0.592867    14A     -0.553806    15A     -0.547354
      16A     -0.525767    17A     -0.494452    18A     -0.475849
      19A     -0.461724    20A     -0.459060    21A     -0.446775

  @DF-RHF Final Energy:  -196.40439295888251

   => Energetics <=

    Nuclear Repulsion Energy =            185.6356721985181366
    One-Electron Energy =                -631.1342221483201911
    Two-Electron Energy =                 249.0941569909195437
    Total Energy =                       -196.4043929588825108

  Dipole Moment: [D]
     X:    -0.0000      Y:    -0.0840      Z:     0.0040     Total:     0.0841

    SAPT Results
  --------------------------------------------------------------------------------------------------------
    Electrostatics                  0.01067068 [mEh]       0.00669595 [kcal/mol]       0.02801587 [kJ/mol]
      Elst10,r                      0.01443710 [mEh]       0.00905942 [kcal/mol]       0.03790459 [kJ/mol]
      Elst12,r                     -0.00376641 [mEh]      -0.00236346 [kcal/mol]      -0.00988872 [kJ/mol]

    Exchange                        0.01124379 [mEh]       0.00705559 [kcal/mol]       0.02952058 [kJ/mol]
      Exch10                        0.00916280 [mEh]       0.00574975 [kcal/mol]       0.02405694 [kJ/mol]
      Exch10(S^2)                   0.00916281 [mEh]       0.00574975 [kcal/mol]       0.02405695 [kJ/mol]
      Exch11(S^2)                  -0.00004395 [mEh]      -0.00002758 [kcal/mol]      -0.00011538 [kJ/mol]
      Exch12(S^2)                   0.00212494 [mEh]       0.00133342 [kcal/mol]       0.00557902 [kJ/mol]

    Induction                      -0.00174311 [mEh]      -0.00109382 [kcal/mol]      -0.00457653 [kJ/mol]
      Ind20,r                      -0.00167950 [mEh]      -0.00105390 [kcal/mol]      -0.00440954 [kJ/mol]
      Ind22                        -0.00003516 [mEh]      -0.00002206 [kcal/mol]      -0.00009230 [kJ/mol]
      Exch-Ind20,r                  0.00059263 [mEh]       0.00037188 [kcal/mol]       0.00155596 [kJ/mol]
      Exch-Ind22                    0.00001241 [mEh]       0.00000778 [kcal/mol]       0.00003257 [kJ/mol]
      delta HF,r (2)               -0.00063349 [mEh]      -0.00039752 [kcal/mol]      -0.00166323 [kJ/mol]

    Dispersion                     -0.85191336 [mEh]      -0.53458370 [kcal/mol]      -2.23669821 [kJ/mol]
      Disp20                       -0.87481740 [mEh]      -0.54895621 [kcal/mol]      -2.29683276 [kJ/mol]
      Disp21                        0.13330431 [mEh]       0.08364972 [kcal/mol]       0.34999041 [kJ/mol]
      Disp22 (SDQ)                  0.03056113 [mEh]       0.01917740 [kcal/mol]       0.08023823 [kJ/mol]
      Disp22 (T)                   -0.13842715 [mEh]      -0.08686435 [kcal/mol]      -0.36344043 [kJ/mol]
      Est. Disp22 (T)              -0.14310782 [mEh]      -0.08980151 [kcal/mol]      -0.37572952 [kJ/mol]
      Exch-Disp20                   0.00214642 [mEh]       0.00134690 [kcal/mol]       0.00563543 [kJ/mol]

  Total HF                          0.02187954 [mEh]       0.01372962 [kcal/mol]       0.05744473 [kJ/mol]
  Total SAPT0                      -0.85079143 [mEh]      -0.53387968 [kcal/mol]      -2.23375260 [kJ/mol]
  Total SAPT2                      -0.85249961 [mEh]      -0.53495158 [kcal/mol]      -2.23823741 [kJ/mol]
  Total SAPT2+                     -0.83174199 [mEh]      -0.52192598 [kcal/mol]      -2.18373830 [kJ/mol]

  Special recipe for scaled SAPT0 (see Manual):
    Electrostatics sSAPT0           0.01443710 [mEh]       0.00905942 [kcal/mol]       0.03790459 [kJ/mol]
    Exchange sSAPT0                 0.00916280 [mEh]       0.00574975 [kcal/mol]       0.02405694 [kJ/mol]
    Induction sSAPT0               -0.00172036 [mEh]      -0.00107954 [kcal/mol]      -0.00451680 [kJ/mol]
    Dispersion sSAPT0              -0.87267098 [mEh]      -0.54760930 [kcal/mol]      -2.29119733 [kJ/mol]
  Total sSAPT0                     -0.85079143 [mEh]      -0.53387968 [kcal/mol]      -2.23375260 [kJ/mol]
  --------------------------------------------------------------------------------------------------------

*** Psi4 exiting successfully. Buy a developer a beer!
