                               Psi4 1.4a2.dev224

  ==> Input File <==

--------------------------------------------------------------------------
#Generated by lconvert.py for sapt job

memory 60 GB

molecule  {
0 1
  C      -2.533310   -0.294880    0.713150
  H      -2.563630   -0.977080   -0.136420
  H      -2.566980   -0.895880    1.621730
  H      -3.434430    0.315960    0.684100
  C      -1.271880    0.557660    0.674360
  H      -1.271030    1.256570    1.514320
  H      -1.266630    1.167900   -0.231830
  C      -0.000140   -0.278420    0.719600
  H      -0.000160   -0.887230    1.628640
  H      -0.000360   -0.980710   -0.119400
  C       1.271890    0.557380    0.674060
  H       1.270970    1.256630    1.513710
  H       1.266640    1.167180   -0.232390
  C       2.533400   -0.294940    0.713280
  H       2.563920   -0.977770   -0.135780
  H       3.434310    0.316250    0.683600
  H       2.567560   -0.895210    1.622330
--
0 1
  C       2.533550    0.231530    7.630050
  H       2.568130    0.831330    6.720730
  H       2.564050    0.914730    8.478800
  H       3.434230   -0.379970    7.660260
  C       1.271720   -0.620360    7.669360
  H       1.266280   -1.230090    8.575850
  H       1.270590   -1.319720    6.829770
  C      -0.000050    0.215740    7.623740
  H      -0.000210    0.918050    8.462720
  H       0.000020    0.824510    6.714670
  C      -1.271810   -0.620410    7.669010
  H      -1.266430   -1.230520    8.575260
  H      -1.270710   -1.319430    6.829150
  C      -2.533530    0.231640    7.630030
  H      -2.567730    0.832170    6.721160
  H      -3.434330   -0.379660    7.659550
  H      -2.564070    0.914230    8.479300
units angstrom
no_reorient
symmetry c1
}

set {
scf_type DF
basis aug-cc-pvtz
freeze_core True
guess SAD
}
energy('sapt2+')
--------------------------------------------------------------------------

  //              Dimer HF             //
    Molecular point group: c1
  Charge       = 0
  Multiplicity = 1
  Basis Set: AUG-CC-PVTZ
    Blend: AUG-CC-PVTZ
  Basis Set: (AUG-CC-PVTZ AUX)
    Blend: AUG-CC-PVTZ-JKFIT
  @DF-RHF Final Energy:  -392.80876189174307
    Total Energy =                       -392.8087618917430746
  //            Monomer A HF           //
    Molecular point group: c1
  Multiplicity = 1
  Basis Set: AUG-CC-PVTZ
    Blend: AUG-CC-PVTZ
  Basis Set: (AUG-CC-PVTZ AUX)
    Blend: AUG-CC-PVTZ-JKFIT
  @DF-RHF Final Energy:  -196.40438498467449
    Total Energy =                       -196.4043849846744934
  //            Monomer B HF           //
    Molecular point group: c1

    Geometry (in Angstrom), charge = 0, multiplicity = 1:

       Center              X                  Y                   Z               Mass
    ------------   -----------------  -----------------  -----------------  -----------------
      Gh(C)          -2.533296684033    -0.263362704695    -3.458513259095    12.000000000000
      Gh(H)          -2.563616684033    -0.945562704695    -4.308083259095     1.007825032230
      Gh(H)          -2.566966684033    -0.864362704695    -2.549933259095     1.007825032230
      Gh(H)          -3.434416684033     0.347477295305    -3.487563259095     1.007825032230
      Gh(C)          -1.271866684033     0.589177295305    -3.497303259095    12.000000000000
      Gh(H)          -1.271016684033     1.288087295305    -2.657343259095     1.007825032230
      Gh(H)          -1.266616684033     1.199417295305    -4.403493259095     1.007825032230
      Gh(C)          -0.000126684033    -0.246902704695    -3.452063259095    12.000000000000
      Gh(H)          -0.000146684033    -0.855712704695    -2.543023259095     1.007825032230
      Gh(H)          -0.000346684033    -0.949192704695    -4.291063259095     1.007825032230
      Gh(C)           1.271903315967     0.588897295305    -3.497603259095    12.000000000000
      Gh(H)           1.270983315967     1.288147295305    -2.657953259095     1.007825032230
      Gh(H)           1.266653315967     1.198697295305    -4.404053259095     1.007825032230
      Gh(C)           2.533413315967    -0.263422704695    -3.458383259095    12.000000000000
      Gh(H)           2.563933315967    -0.946252704695    -4.307443259095     1.007825032230
      Gh(H)           3.434323315967     0.347767295305    -3.488063259095     1.007825032230
      Gh(H)           2.567573315967    -0.863692704695    -2.549333259095     1.007825032230
         C            2.533563315967     0.263047295305     3.458386740905    12.000000000000
         H            2.568143315967     0.862847295305     2.549066740905     1.007825032230
         H            2.564063315967     0.946247295305     4.307136740905     1.007825032230
         H            3.434243315967    -0.348452704695     3.488596740905     1.007825032230
         C            1.271733315967    -0.588842704695     3.497696740905    12.000000000000
         H            1.266293315967    -1.198572704695     4.404186740905     1.007825032230
         H            1.270603315967    -1.288202704695     2.658106740905     1.007825032230
         C           -0.000036684033     0.247257295305     3.452076740905    12.000000000000
         H           -0.000196684033     0.949567295305     4.291056740905     1.007825032230
         H            0.000033315967     0.856027295305     2.543006740905     1.007825032230
         C           -1.271796684033    -0.588892704695     3.497346740905    12.000000000000
         H           -1.266416684033    -1.199002704695     4.403596740905     1.007825032230
         H           -1.270696684033    -1.287912704695     2.657486740905     1.007825032230
         C           -2.533516684033     0.263157295305     3.458366740905    12.000000000000
         H           -2.567716684033     0.863687295305     2.549496740905     1.007825032230
         H           -3.434316684033    -0.348142704695     3.487886740905     1.007825032230
         H           -2.564056684033     0.945747295305     4.307636740905     1.007825032230

  Charge       = 0
  Multiplicity = 1
  Basis Set: AUG-CC-PVTZ
    Blend: AUG-CC-PVTZ
  Basis Set: (AUG-CC-PVTZ AUX)
    Blend: AUG-CC-PVTZ-JKFIT

    Orbital Energies [Eh]
    ---------------------

    Doubly Occupied:

       1A    -11.212587     2A    -11.212515     3A    -11.210144
       4A    -11.207066     5A    -11.207065     6A     -1.081206
       7A     -1.015341     8A     -0.918974     9A     -0.819818
      10A     -0.784968    11A     -0.647297    12A     -0.598306
      13A     -0.592867    14A     -0.553804    15A     -0.547353
      16A     -0.525769    17A     -0.494451    18A     -0.475850
      19A     -0.461725    20A     -0.459062    21A     -0.446771

  @DF-RHF Final Energy:  -196.40438612406615

   => Energetics <=

    Nuclear Repulsion Energy =            185.6355783709635432
    One-Electron Energy =                -631.1340514073389159
    Two-Electron Energy =                 249.0940869123091943
    Total Energy =                       -196.4043861240661499

  Dipole Moment: [D]
     X:    -0.0000      Y:    -0.0840      Z:     0.0040     Total:     0.0841

    SAPT Results
  --------------------------------------------------------------------------------------------------------
    Electrostatics                  0.00793474 [mEh]       0.00497913 [kcal/mol]       0.02083267 [kJ/mol]
      Elst10,r                      0.00919388 [mEh]       0.00576925 [kcal/mol]       0.02413853 [kJ/mol]
      Elst12,r                     -0.00125914 [mEh]      -0.00079012 [kcal/mol]      -0.00330586 [kJ/mol]

    Exchange                        0.00030437 [mEh]       0.00019100 [kcal/mol]       0.00079913 [kJ/mol]
      Exch10                        0.00023802 [mEh]       0.00014936 [kcal/mol]       0.00062493 [kJ/mol]
      Exch10(S^2)                   0.00023802 [mEh]       0.00014936 [kcal/mol]       0.00062493 [kJ/mol]
      Exch11(S^2)                  -0.00000593 [mEh]      -0.00000372 [kcal/mol]      -0.00001558 [kJ/mol]
      Exch12(S^2)                   0.00007228 [mEh]       0.00004536 [kcal/mol]       0.00018978 [kJ/mol]

    Induction                      -0.00015091 [mEh]      -0.00009470 [kcal/mol]      -0.00039621 [kJ/mol]
      Ind20,r                      -0.00034254 [mEh]      -0.00021495 [kcal/mol]      -0.00089935 [kJ/mol]
      Ind22                         0.00006638 [mEh]       0.00004165 [kcal/mol]       0.00017427 [kJ/mol]
      Exch-Ind20,r                  0.00001226 [mEh]       0.00000769 [kcal/mol]       0.00003218 [kJ/mol]
      Exch-Ind22                   -0.00000237 [mEh]      -0.00000149 [kcal/mol]      -0.00000624 [kJ/mol]
      delta HF,r (2)                0.00011538 [mEh]       0.00007240 [kcal/mol]       0.00030293 [kJ/mol]

    Dispersion                     -0.31168257 [mEh]      -0.19558377 [kcal/mol]      -0.81832248 [kJ/mol]
      Disp20                       -0.32600631 [mEh]      -0.20457205 [kcal/mol]      -0.85592945 [kJ/mol]
      Disp21                        0.05699349 [mEh]       0.03576396 [kcal/mol]       0.14963640 [kJ/mol]
      Disp22 (SDQ)                  0.01101444 [mEh]       0.00691166 [kcal/mol]       0.02891840 [kJ/mol]
      Disp22 (T)                   -0.05255183 [mEh]      -0.03297677 [kcal/mol]      -0.13797480 [kJ/mol]
      Est. Disp22 (T)              -0.05375507 [mEh]      -0.03373181 [kcal/mol]      -0.14113390 [kJ/mol]
      Exch-Disp20                   0.00007087 [mEh]       0.00004447 [kcal/mol]       0.00018606 [kJ/mol]

  Total HF                          0.00921700 [mEh]       0.00578375 [kcal/mol]       0.02419922 [kJ/mol]
  Total SAPT0                      -0.31671844 [mEh]      -0.19874382 [kcal/mol]      -0.83154416 [kJ/mol]
  Total SAPT2                      -0.31784723 [mEh]      -0.19945215 [kcal/mol]      -0.83450779 [kJ/mol]
  Total SAPT2+                     -0.30359436 [mEh]      -0.19050834 [kcal/mol]      -0.79708689 [kJ/mol]

  Special recipe for scaled SAPT0 (see Manual):
    Electrostatics sSAPT0           0.00919388 [mEh]       0.00576925 [kcal/mol]       0.02413853 [kJ/mol]
    Exchange sSAPT0                 0.00023802 [mEh]       0.00014936 [kcal/mol]       0.00062493 [kJ/mol]
    Induction sSAPT0               -0.00021491 [mEh]      -0.00013486 [kcal/mol]      -0.00056424 [kJ/mol]
    Dispersion sSAPT0              -0.32593544 [mEh]      -0.20452758 [kcal/mol]      -0.85574338 [kJ/mol]
  Total sSAPT0                     -0.31671844 [mEh]      -0.19874382 [kcal/mol]      -0.83154416 [kJ/mol]
  --------------------------------------------------------------------------------------------------------

*** Psi4 exiting successfully. Buy a developer a beer!
