                               Psi4 1.4a2.dev224

  ==> Input File <==

--------------------------------------------------------------------------
#Generated by lconvert.py for sapt job

memory 60 GB

molecule  {
0 1
  C      -2.533310   -0.294880    0.713150
  H      -2.563630   -0.977080   -0.136420
  H      -2.566980   -0.895880    1.621730
  H      -3.434430    0.315960    0.684100
  C      -1.271880    0.557660    0.674360
  H      -1.271030    1.256570    1.514320
  H      -1.266630    1.167900   -0.231830
  C      -0.000140   -0.278420    0.719600
  H      -0.000160   -0.887230    1.628640
  H      -0.000360   -0.980710   -0.119400
  C       1.271890    0.557380    0.674060
  H       1.270970    1.256630    1.513710
  H       1.266640    1.167180   -0.232390
  C       2.533400   -0.294940    0.713280
  H       2.563920   -0.977770   -0.135780
  H       3.434310    0.316250    0.683600
  H       2.567560   -0.895210    1.622330
--
0 1
  C       2.533550    0.274460    5.522380
  H       2.568140    0.874270    4.613060
  H       2.564060    0.957670    6.371130
  H       3.434240   -0.337040    5.552590
  C       1.271730   -0.577430    5.561690
  H       1.266280   -1.187150    6.468190
  H       1.270600   -1.276780    4.722110
  C      -0.000050    0.258670    5.516070
  H      -0.000200    0.960980    6.355060
  H       0.000030    0.867450    4.607000
  C      -1.271810   -0.577470    5.561340
  H      -1.266420   -1.187580    6.467590
  H      -1.270700   -1.276490    4.721480
  C      -2.533530    0.274580    5.522370
  H      -2.567720    0.875110    4.613490
  H      -3.434330   -0.336720    5.551880
  H      -2.564070    0.957160    6.371630
units angstrom
no_reorient
symmetry c1
}

set {
scf_type DF
basis aug-cc-pvtz
freeze_core True
guess SAD
}
energy('sapt2+')
--------------------------------------------------------------------------

  //              Dimer HF             //
    Molecular point group: c1
  Charge       = 0
  Multiplicity = 1
  Basis Set: AUG-CC-PVTZ
    Blend: AUG-CC-PVTZ
  Basis Set: (AUG-CC-PVTZ AUX)
    Blend: AUG-CC-PVTZ-JKFIT
  @DF-RHF Final Energy:  -392.80857631685234
    Total Energy =                       -392.8085763168523954
  //            Monomer A HF           //
    Molecular point group: c1
  Multiplicity = 1
  Basis Set: AUG-CC-PVTZ
    Blend: AUG-CC-PVTZ
  Basis Set: (AUG-CC-PVTZ AUX)
    Blend: AUG-CC-PVTZ-JKFIT
  @DF-RHF Final Energy:  -196.40440549830015
    Total Energy =                       -196.4044054983001502
  //            Monomer B HF           //
    Molecular point group: c1

    Geometry (in Angstrom), charge = 0, multiplicity = 1:

       Center              X                  Y                   Z               Mass
    ------------   -----------------  -----------------  -----------------  -----------------
      Gh(C)          -2.533298145351    -0.284829998261    -2.404679301033    12.000000000000
      Gh(H)          -2.563618145351    -0.967029998261    -3.254249301033     1.007825032230
      Gh(H)          -2.566968145351    -0.885829998261    -1.496099301033     1.007825032230
      Gh(H)          -3.434418145351     0.326010001739    -2.433729301033     1.007825032230
      Gh(C)          -1.271868145351     0.567710001739    -2.443469301033    12.000000000000
      Gh(H)          -1.271018145351     1.266620001739    -1.603509301033     1.007825032230
      Gh(H)          -1.266618145351     1.177950001739    -3.349659301033     1.007825032230
      Gh(C)          -0.000128145351    -0.268369998261    -2.398229301033    12.000000000000
      Gh(H)          -0.000148145351    -0.877179998261    -1.489189301033     1.007825032230
      Gh(H)          -0.000348145351    -0.970659998261    -3.237229301033     1.007825032230
      Gh(C)           1.271901854649     0.567430001739    -2.443769301033    12.000000000000
      Gh(H)           1.270981854649     1.266680001739    -1.604119301033     1.007825032230
      Gh(H)           1.266651854649     1.177230001739    -3.350219301033     1.007825032230
      Gh(C)           2.533411854649    -0.284889998261    -2.404549301033    12.000000000000
      Gh(H)           2.563931854649    -0.967719998261    -3.253609301033     1.007825032230
      Gh(H)           3.434321854649     0.326300001739    -2.434229301033     1.007825032230
      Gh(H)           2.567571854649    -0.885159998261    -1.495499301033     1.007825032230
         C            2.533561854649     0.284510001739     2.404550698967    12.000000000000
         H            2.568151854649     0.884320001739     1.495230698967     1.007825032230
         H            2.564071854649     0.967720001739     3.253300698967     1.007825032230
         H            3.434251854649    -0.326989998261     2.434760698967     1.007825032230
         C            1.271741854649    -0.567379998261     2.443860698967    12.000000000000
         H            1.266291854649    -1.177099998261     3.350360698967     1.007825032230
         H            1.270611854649    -1.266729998261     1.604280698967     1.007825032230
         C           -0.000038145351     0.268720001739     2.398240698967    12.000000000000
         H           -0.000188145351     0.971030001739     3.237230698967     1.007825032230
         H            0.000041854649     0.877500001739     1.489170698967     1.007825032230
         C           -1.271798145351    -0.567419998261     2.443510698967    12.000000000000
         H           -1.266408145351    -1.177529998261     3.349760698967     1.007825032230
         H           -1.270688145351    -1.266439998261     1.603650698967     1.007825032230
         C           -2.533518145351     0.284630001739     2.404540698967    12.000000000000
         H           -2.567708145351     0.885160001739     1.495660698967     1.007825032230
         H           -3.434318145351    -0.326669998261     2.434050698967     1.007825032230
         H           -2.564058145351     0.967210001739     3.253800698967     1.007825032230

  Charge       = 0
  Multiplicity = 1
  Basis Set: AUG-CC-PVTZ
    Blend: AUG-CC-PVTZ
  Basis Set: (AUG-CC-PVTZ AUX)
    Blend: AUG-CC-PVTZ-JKFIT

    Orbital Energies [Eh]
    ---------------------

    Doubly Occupied:

       1A    -11.212591     2A    -11.212519     3A    -11.210153
       4A    -11.207073     5A    -11.207070     6A     -1.081206
       7A     -1.015343     8A     -0.918974     9A     -0.819820
      10A     -0.784969    11A     -0.647298    12A     -0.598306
      13A     -0.592869    14A     -0.553805    15A     -0.547353
      16A     -0.525768    17A     -0.494453    18A     -0.475851
      19A     -0.461723    20A     -0.459062    21A     -0.446772

  @DF-RHF Final Energy:  -196.40440652931531

   => Energetics <=

    Nuclear Repulsion Energy =            185.6355284492453563
    One-Electron Energy =                -631.1339142432454992
    Two-Electron Energy =                 249.0939792646848048
    Total Energy =                       -196.4044065293153096

  Dipole Moment: [D]
     X:    -0.0000      Y:    -0.0841      Z:     0.0041     Total:     0.0842

    SAPT Results
  --------------------------------------------------------------------------------------------------------
    Electrostatics                 -0.09847348 [mEh]      -0.06179304 [kcal/mol]      -0.25854210 [kJ/mol]
      Elst10,r                     -0.06437274 [mEh]      -0.04039450 [kcal/mol]      -0.16901060 [kJ/mol]
      Elst12,r                     -0.03410075 [mEh]      -0.02139854 [kcal/mol]      -0.08953150 [kJ/mol]

    Exchange                        0.38313181 [mEh]       0.24041884 [kcal/mol]       1.00591243 [kJ/mol]
      Exch10                        0.32976842 [mEh]       0.20693281 [kcal/mol]       0.86580687 [kJ/mol]
      Exch10(S^2)                   0.32976241 [mEh]       0.20692904 [kcal/mol]       0.86579110 [kJ/mol]
      Exch11(S^2)                   0.00531346 [mEh]       0.00333425 [kcal/mol]       0.01395048 [kJ/mol]
      Exch12(S^2)                   0.04804993 [mEh]       0.03015179 [kcal/mol]       0.12615508 [kJ/mol]

    Induction                      -0.03134803 [mEh]      -0.01967118 [kcal/mol]      -0.08230424 [kJ/mol]
      Ind20,r                      -0.03758571 [mEh]      -0.02358539 [kcal/mol]      -0.09868127 [kJ/mol]
      Ind22                        -0.00691183 [mEh]      -0.00433724 [kcal/mol]      -0.01814702 [kJ/mol]
      Exch-Ind20,r                  0.02854193 [mEh]       0.01791033 [kcal/mol]       0.07493683 [kJ/mol]
      Exch-Ind22                    0.00524873 [mEh]       0.00329362 [kcal/mol]       0.01378053 [kJ/mol]
      delta HF,r (2)               -0.02064114 [mEh]      -0.01295251 [kcal/mol]      -0.05419331 [kJ/mol]

    Dispersion                     -2.94125764 [mEh]      -1.84566703 [kcal/mol]      -7.72227087 [kJ/mol]
      Disp20                       -2.97120216 [mEh]      -1.86445750 [kcal/mol]      -7.80089018 [kJ/mol]
      Disp21                        0.34330365 [mEh]       0.21542629 [kcal/mol]       0.90134360 [kJ/mol]
      Disp22 (SDQ)                  0.10659727 [mEh]       0.06689080 [kcal/mol]       0.27987111 [kJ/mol]
      Disp22 (T)                   -0.44955826 [mEh]      -0.28210207 [kcal/mol]      -1.18031504 [kJ/mol]
      Est. Disp22 (T)              -0.47702669 [mEh]      -0.29933877 [kcal/mol]      -1.25243340 [kJ/mol]
      Exch-Disp20                   0.05707028 [mEh]       0.03581214 [kcal/mol]       0.14983800 [kJ/mol]

  Total HF                          0.23571076 [mEh]       0.14791074 [kcal/mol]       0.61885852 [kJ/mol]
  Total SAPT0                      -2.67842111 [mEh]      -1.68073462 [kcal/mol]      -7.03219366 [kJ/mol]
  Total SAPT2                      -2.66082158 [mEh]      -1.66969075 [kcal/mol]      -6.98598609 [kJ/mol]
  Total SAPT2+                     -2.68794734 [mEh]      -1.68671242 [kcal/mol]      -7.05720478 [kJ/mol]

  Special recipe for scaled SAPT0 (see Manual):
    Electrostatics sSAPT0          -0.06437274 [mEh]      -0.04039450 [kcal/mol]      -0.16901060 [kJ/mol]
    Exchange sSAPT0                 0.32976842 [mEh]       0.20693281 [kcal/mol]       0.86580687 [kJ/mol]
    Induction sSAPT0               -0.02968336 [mEh]      -0.01862659 [kcal/mol]      -0.07793365 [kJ/mol]
    Dispersion sSAPT0              -2.91412875 [mEh]      -1.82864340 [kcal/mol]      -7.65104399 [kJ/mol]
  Total sSAPT0                     -2.67841643 [mEh]      -1.68073169 [kcal/mol]      -7.03218137 [kJ/mol]
  --------------------------------------------------------------------------------------------------------

*** Psi4 exiting successfully. Buy a developer a beer!
