                               Psi4 1.4a2.dev224

  ==> Input File <==

--------------------------------------------------------------------------
#Generated by lconvert.py for sapt job

memory 60 GB

molecule  {
0 1
  C      -2.530380   -0.417570    0.681310
  H      -2.559890   -0.982790   -0.250160
  H      -2.554040   -1.133860    1.502660
  H      -3.436210    0.184140    0.736770
  C      -1.276160    0.443640    0.750030
  H      -1.278080    1.025220    1.675080
  H      -1.280340    1.168560   -0.067160
  C       0.002200   -0.380720    0.678990
  H       0.007830   -1.111410    1.493830
  H       0.006250   -0.960520   -0.248820
  C       1.268330    0.462400    0.749370
  H       1.262020    1.044250    1.674250
  H       1.261640    1.187060   -0.068030
  C       2.534970   -0.380430    0.680690
  H       2.572440   -0.945720   -0.250450
  H       3.431980    0.234420    0.735580
  H       2.569210   -1.095810    1.502460
--
0 1
  C      -0.000810    0.157820    8.543380
  C       0.000260    0.017690   10.063110
  H      -0.886770    0.481770   10.496480
  H       0.009520   -1.033090   10.356120
  H       0.878920    0.497360   10.496750
  C      -1.240260   -0.523830    7.969480
  H      -1.263560   -0.434870    6.882650
  H      -1.252350   -1.585100    8.222490
  H      -2.151210   -0.071540    8.364560
  C       1.251800   -0.499720    7.969910
  H       1.273130   -0.411430    6.882940
  H       1.284930   -1.560280    8.224000
  H       2.153610   -0.029070    8.364330
  C      -0.015060    1.637620    8.168760
  H       0.862710    2.148200    8.567710
  H      -0.015580    1.764070    7.085100
  H      -0.903160    2.130950    8.566540
units angstrom
no_reorient
symmetry c1
}

set {
scf_type DF
basis aug-cc-pvtz
freeze_core True
guess SAD
}
energy('sapt2+')
--------------------------------------------------------------------------

  //              Dimer HF             //
    Molecular point group: c1
  Charge       = 0
  Multiplicity = 1
  Basis Set: AUG-CC-PVTZ
    Blend: AUG-CC-PVTZ
  Basis Set: (AUG-CC-PVTZ AUX)
    Blend: AUG-CC-PVTZ-JKFIT
  @DF-RHF Final Energy:  -392.80892958614538
    Total Energy =                       -392.8089295861453820
  //            Monomer A HF           //
    Molecular point group: c1
  Multiplicity = 1
  Basis Set: AUG-CC-PVTZ
    Blend: AUG-CC-PVTZ
  Basis Set: (AUG-CC-PVTZ AUX)
    Blend: AUG-CC-PVTZ-JKFIT
  @DF-RHF Final Energy:  -196.40438421129969
    Total Energy =                       -196.4043842112996856
  //            Monomer B HF           //
    Molecular point group: c1

    Geometry (in Angstrom), charge = 0, multiplicity = 1:

       Center              X                  Y                   Z               Mass
    ------------   -----------------  -----------------  -----------------  -----------------
      Gh(C)          -2.529905793619    -0.464157191990    -3.943728941881    12.000000000000
      Gh(H)          -2.559415793619    -1.029377191990    -4.875198941881     1.007825032230
      Gh(H)          -2.553565793619    -1.180447191990    -3.122378941881     1.007825032230
      Gh(H)          -3.435735793619     0.137552808010    -3.888268941881     1.007825032230
      Gh(C)          -1.275685793619     0.397052808010    -3.875008941881    12.000000000000
      Gh(H)          -1.277605793619     0.978632808010    -2.949958941881     1.007825032230
      Gh(H)          -1.279865793619     1.121972808010    -4.692198941881     1.007825032230
      Gh(C)           0.002674206381    -0.427307191990    -3.946048941881    12.000000000000
      Gh(H)           0.008304206381    -1.157997191990    -3.131208941881     1.007825032230
      Gh(H)           0.006724206381    -1.007107191990    -4.873858941881     1.007825032230
      Gh(C)           1.268804206381     0.415812808010    -3.875668941881    12.000000000000
      Gh(H)           1.262494206381     0.997662808010    -2.950788941881     1.007825032230
      Gh(H)           1.262114206381     1.140472808010    -4.693068941881     1.007825032230
      Gh(C)           2.535444206381    -0.427017191990    -3.944348941881    12.000000000000
      Gh(H)           2.572914206381    -0.992307191990    -4.875488941881     1.007825032230
      Gh(H)           3.432454206381     0.187832808010    -3.889458941881     1.007825032230
      Gh(H)           2.569684206381    -1.142397191990    -3.122578941881     1.007825032230
         C           -0.000335793619     0.111232808010     3.918341058119    12.000000000000
         C            0.000734206381    -0.028897191990     5.438071058119    12.000000000000
         H           -0.886295793619     0.435182808010     5.871441058119     1.007825032230
         H            0.009994206381    -1.079677191990     5.731081058119     1.007825032230
         H            0.879394206381     0.450772808010     5.871711058119     1.007825032230
         C           -1.239785793619    -0.570417191990     3.344441058119    12.000000000000
         H           -1.263085793619    -0.481457191990     2.257611058119     1.007825032230
         H           -1.251875793619    -1.631687191990     3.597451058119     1.007825032230
         H           -2.150735793619    -0.118127191990     3.739521058119     1.007825032230
         C            1.252274206381    -0.546307191990     3.344871058119    12.000000000000
         H            1.273604206381    -0.458017191990     2.257901058119     1.007825032230
         H            1.285404206381    -1.606867191990     3.598961058119     1.007825032230
         H            2.154084206381    -0.075657191990     3.739291058119     1.007825032230
         C           -0.014585793619     1.591032808010     3.543721058119    12.000000000000
         H            0.863184206381     2.101612808010     3.942671058119     1.007825032230
         H           -0.015105793619     1.717482808010     2.460061058119     1.007825032230
         H           -0.902685793619     2.084362808010     3.941501058119     1.007825032230

  Charge       = 0
  Multiplicity = 1
  Basis Set: AUG-CC-PVTZ
    Blend: AUG-CC-PVTZ
  Basis Set: (AUG-CC-PVTZ AUX)
    Blend: AUG-CC-PVTZ-JKFIT

    Orbital Energies [Eh]
    ---------------------

    Doubly Occupied:

       1A    -11.226802     2A    -11.205595     3A    -11.205586
       4A    -11.205571     5A    -11.205536     6A     -1.106557
       7A     -0.928823     8A     -0.928688     9A     -0.928684
      10A     -0.729926    11A     -0.611862    12A     -0.611792
      13A     -0.611763    14A     -0.552882    15A     -0.552846
      16A     -0.509276    17A     -0.509229    18A     -0.509194
      19A     -0.452521    20A     -0.452395    21A     -0.452385

  @DF-RHF Final Energy:  -196.40455211835609

   => Energetics <=

    Nuclear Repulsion Energy =            199.3689415420747650
    One-Electron Energy =                -658.5511802481014456
    Two-Electron Energy =                 262.7776865876705870
    Total Energy =                       -196.4045521183560936

  Dipole Moment: [D]
     X:    -0.0000      Y:     0.0004      Z:    -0.0007     Total:     0.0008

    SAPT Results
  --------------------------------------------------------------------------------------------------------
    Electrostatics                  0.00645288 [mEh]       0.00404924 [kcal/mol]       0.01694202 [kJ/mol]
      Elst10,r                      0.00703312 [mEh]       0.00441335 [kcal/mol]       0.01846546 [kJ/mol]
      Elst12,r                     -0.00058024 [mEh]      -0.00036411 [kcal/mol]      -0.00152343 [kJ/mol]

    Exchange                        0.00015733 [mEh]       0.00009873 [kcal/mol]       0.00041308 [kJ/mol]
      Exch10                        0.00011917 [mEh]       0.00007478 [kcal/mol]       0.00031287 [kJ/mol]
      Exch10(S^2)                   0.00011917 [mEh]       0.00007478 [kcal/mol]       0.00031287 [kJ/mol]
      Exch11(S^2)                  -0.00000255 [mEh]      -0.00000160 [kcal/mol]      -0.00000669 [kJ/mol]
      Exch12(S^2)                   0.00004072 [mEh]       0.00002555 [kcal/mol]       0.00010690 [kJ/mol]

    Induction                      -0.00039184 [mEh]      -0.00024589 [kcal/mol]      -0.00102878 [kJ/mol]
      Ind20,r                      -0.00023646 [mEh]      -0.00014838 [kcal/mol]      -0.00062082 [kJ/mol]
      Ind22                         0.00001736 [mEh]       0.00001089 [kcal/mol]       0.00004558 [kJ/mol]
      Exch-Ind20,r                  0.00000579 [mEh]       0.00000364 [kcal/mol]       0.00001521 [kJ/mol]
      Exch-Ind22                   -0.00000043 [mEh]      -0.00000027 [kcal/mol]      -0.00000112 [kJ/mol]
      delta HF,r (2)               -0.00017811 [mEh]      -0.00011177 [kcal/mol]      -0.00046764 [kJ/mol]

    Dispersion                     -0.20541396 [mEh]      -0.12889921 [kcal/mol]      -0.53931429 [kJ/mol]
      Disp20                       -0.21224471 [mEh]      -0.13318557 [kcal/mol]      -0.55724841 [kJ/mol]
      Disp21                        0.03366191 [mEh]       0.02112317 [kcal/mol]       0.08837932 [kJ/mol]
      Disp22 (SDQ)                  0.00911342 [mEh]       0.00571876 [kcal/mol]       0.02392727 [kJ/mol]
      Disp22 (T)                   -0.03519118 [mEh]      -0.02208280 [kcal/mol]      -0.09239442 [kJ/mol]
      Est. Disp22 (T)              -0.03597958 [mEh]      -0.02257752 [kcal/mol]      -0.09446436 [kJ/mol]
      Exch-Disp20                   0.00003500 [mEh]       0.00002196 [kcal/mol]       0.00009189 [kJ/mol]

  Total HF                          0.00674351 [mEh]       0.00423162 [kcal/mol]       0.01770508 [kJ/mol]
  Total SAPT0                      -0.20546620 [mEh]      -0.12893199 [kcal/mol]      -0.53945144 [kJ/mol]
  Total SAPT2                      -0.20599134 [mEh]      -0.12926152 [kcal/mol]      -0.54083020 [kJ/mol]
  Total SAPT2+                     -0.19919560 [mEh]      -0.12499712 [kcal/mol]      -0.52298797 [kJ/mol]

  Special recipe for scaled SAPT0 (see Manual):
    Electrostatics sSAPT0           0.00703312 [mEh]       0.00441335 [kcal/mol]       0.01846546 [kJ/mol]
    Exchange sSAPT0                 0.00011917 [mEh]       0.00007478 [kcal/mol]       0.00031287 [kJ/mol]
    Induction sSAPT0               -0.00040878 [mEh]      -0.00025651 [kcal/mol]      -0.00107325 [kJ/mol]
    Dispersion sSAPT0              -0.21220971 [mEh]      -0.13316360 [kcal/mol]      -0.55715652 [kJ/mol]
  Total sSAPT0                     -0.20546620 [mEh]      -0.12893199 [kcal/mol]      -0.53945144 [kJ/mol]
  --------------------------------------------------------------------------------------------------------

*** Psi4 exiting successfully. Buy a developer a beer!
