                               Psi4 1.4a2.dev224

  ==> Input File <==

--------------------------------------------------------------------------
#Generated by lconvert.py for sapt job

memory 60 GB

molecule  {
0 1
  C      -2.530380   -0.417570    0.681310
  H      -2.559890   -0.982790   -0.250160
  H      -2.554040   -1.133860    1.502660
  H      -3.436210    0.184140    0.736770
  C      -1.276160    0.443640    0.750030
  H      -1.278080    1.025220    1.675080
  H      -1.280340    1.168560   -0.067160
  C       0.002200   -0.380720    0.678990
  H       0.007830   -1.111410    1.493830
  H       0.006250   -0.960520   -0.248820
  C       1.268330    0.462400    0.749370
  H       1.262020    1.044250    1.674250
  H       1.261640    1.187060   -0.068030
  C       2.534970   -0.380430    0.680690
  H       2.572440   -0.945720   -0.250450
  H       3.431980    0.234420    0.735580
  H       2.569210   -1.095810    1.502460
--
0 1
  C      -0.000610    0.094680    6.321720
  C       0.000460   -0.045450    7.841450
  H      -0.886580    0.418620    8.274820
  H       0.009710   -1.096230    8.134460
  H       0.879120    0.434210    8.275100
  C      -1.240070   -0.586970    5.747820
  H      -1.263370   -0.498020    4.660990
  H      -1.252160   -1.648250    6.000840
  H      -2.151010   -0.134680    6.142910
  C       1.251990   -0.562860    5.748250
  H       1.273320   -0.474580    4.661280
  H       1.285120   -1.623420    6.002340
  H       2.153800   -0.092220    6.142670
  C      -0.014860    1.574470    5.947100
  H       0.862900    2.085060    6.346050
  H      -0.015390    1.700930    4.863450
  H      -0.902970    2.067800    6.344890
units angstrom
no_reorient
symmetry c1
}

set {
scf_type DF
basis aug-cc-pvtz
freeze_core True
guess SAD
}
energy('sapt2+')
--------------------------------------------------------------------------

  //              Dimer HF             //
    Molecular point group: c1
  Charge       = 0
  Multiplicity = 1
  Basis Set: AUG-CC-PVTZ
    Blend: AUG-CC-PVTZ
  Basis Set: (AUG-CC-PVTZ AUX)
    Blend: AUG-CC-PVTZ-JKFIT
  @DF-RHF Final Energy:  -392.80882759340693
    Total Energy =                       -392.8088275934069316
  //            Monomer A HF           //
    Molecular point group: c1
  Multiplicity = 1
  Basis Set: AUG-CC-PVTZ
    Blend: AUG-CC-PVTZ
  Basis Set: (AUG-CC-PVTZ AUX)
    Blend: AUG-CC-PVTZ-JKFIT
  @DF-RHF Final Energy:  -196.40440076623216
    Total Energy =                       -196.4044007662321576
  //            Monomer B HF           //
    Molecular point group: c1

    Geometry (in Angstrom), charge = 0, multiplicity = 1:

       Center              X                  Y                   Z               Mass
    ------------   -----------------  -----------------  -----------------  -----------------
      Gh(C)          -2.530003430156    -0.432585870465    -2.832899291365    12.000000000000
      Gh(H)          -2.559513430156    -0.997805870465    -3.764369291365     1.007825032230
      Gh(H)          -2.553663430156    -1.148875870465    -2.011549291365     1.007825032230
      Gh(H)          -3.435833430156     0.169124129535    -2.777439291365     1.007825032230
      Gh(C)          -1.275783430156     0.428624129535    -2.764179291365    12.000000000000
      Gh(H)          -1.277703430156     1.010204129535    -1.839129291365     1.007825032230
      Gh(H)          -1.279963430156     1.153544129535    -3.581369291365     1.007825032230
      Gh(C)           0.002576569844    -0.395735870465    -2.835219291365    12.000000000000
      Gh(H)           0.008206569844    -1.126425870465    -2.020379291365     1.007825032230
      Gh(H)           0.006626569844    -0.975535870465    -3.763029291365     1.007825032230
      Gh(C)           1.268706569844     0.447384129535    -2.764839291365    12.000000000000
      Gh(H)           1.262396569844     1.029234129535    -1.839959291365     1.007825032230
      Gh(H)           1.262016569844     1.172044129535    -3.582239291365     1.007825032230
      Gh(C)           2.535346569844    -0.395445870465    -2.833519291365    12.000000000000
      Gh(H)           2.572816569844    -0.960735870465    -3.764659291365     1.007825032230
      Gh(H)           3.432356569844     0.219404129535    -2.778629291365     1.007825032230
      Gh(H)           2.569586569844    -1.110825870465    -2.011749291365     1.007825032230
         C           -0.000233430156     0.079664129535     2.807510708635    12.000000000000
         C            0.000836569844    -0.060465870465     4.327240708635    12.000000000000
         H           -0.886203430156     0.403604129535     4.760610708635     1.007825032230
         H            0.010086569844    -1.111245870465     4.620250708635     1.007825032230
         H            0.879496569844     0.419194129535     4.760890708635     1.007825032230
         C           -1.239693430156    -0.601985870465     2.233610708635    12.000000000000
         H           -1.262993430156    -0.513035870465     1.146780708635     1.007825032230
         H           -1.251783430156    -1.663265870465     2.486630708635     1.007825032230
         H           -2.150633430156    -0.149695870465     2.628700708635     1.007825032230
         C            1.252366569844    -0.577875870465     2.234040708635    12.000000000000
         H            1.273696569844    -0.489595870465     1.147070708635     1.007825032230
         H            1.285496569844    -1.638435870465     2.488130708635     1.007825032230
         H            2.154176569844    -0.107235870465     2.628460708635     1.007825032230
         C           -0.014483430156     1.559454129535     2.432890708635    12.000000000000
         H            0.863276569844     2.070044129535     2.831840708635     1.007825032230
         H           -0.015013430156     1.685914129535     1.349240708635     1.007825032230
         H           -0.902593430156     2.052784129535     2.830680708635     1.007825032230

  Charge       = 0
  Multiplicity = 1
  Basis Set: AUG-CC-PVTZ
    Blend: AUG-CC-PVTZ
  Basis Set: (AUG-CC-PVTZ AUX)
    Blend: AUG-CC-PVTZ-JKFIT

    Orbital Energies [Eh]
    ---------------------

    Doubly Occupied:

       1A    -11.226798     2A    -11.205601     3A    -11.205593
       4A    -11.205577     5A    -11.205541     6A     -1.106559
       7A     -0.928825     8A     -0.928690     9A     -0.928686
      10A     -0.729927    11A     -0.611862    12A     -0.611795
      13A     -0.611765    14A     -0.552882    15A     -0.552847
      16A     -0.509276    17A     -0.509230    18A     -0.509195
      19A     -0.452523    20A     -0.452395    21A     -0.452387

  @DF-RHF Final Energy:  -196.40457239827651

   => Energetics <=

    Nuclear Repulsion Energy =            199.3691129943304645
    One-Electron Energy =                -658.5514794846768609
    Two-Electron Energy =                 262.7777940920698825
    Total Energy =                       -196.4045723982765139

  Dipole Moment: [D]
     X:     0.0000      Y:     0.0004      Z:    -0.0007     Total:     0.0008

    SAPT Results
  --------------------------------------------------------------------------------------------------------
    Electrostatics                 -0.06183600 [mEh]      -0.03880268 [kcal/mol]      -0.16235040 [kJ/mol]
      Elst10,r                     -0.03722837 [mEh]      -0.02336115 [kcal/mol]      -0.09774307 [kJ/mol]
      Elst12,r                     -0.02460764 [mEh]      -0.01544152 [kcal/mol]      -0.06460734 [kJ/mol]

    Exchange                        0.24210473 [mEh]       0.15192301 [kcal/mol]       0.63564588 [kJ/mol]
      Exch10                        0.20478638 [mEh]       0.12850540 [kcal/mol]       0.53766658 [kJ/mol]
      Exch10(S^2)                   0.20476070 [mEh]       0.12848928 [kcal/mol]       0.53759915 [kJ/mol]
      Exch11(S^2)                   0.00361455 [mEh]       0.00226817 [kcal/mol]       0.00949001 [kJ/mol]
      Exch12(S^2)                   0.03370379 [mEh]       0.02114945 [kcal/mol]       0.08848929 [kJ/mol]

    Induction                      -0.02358422 [mEh]      -0.01479932 [kcal/mol]      -0.06192037 [kJ/mol]
      Ind20,r                      -0.02569752 [mEh]      -0.01612544 [kcal/mol]      -0.06746883 [kJ/mol]
      Ind22                        -0.00561204 [mEh]      -0.00352161 [kcal/mol]      -0.01473441 [kJ/mol]
      Exch-Ind20,r                  0.01838345 [mEh]       0.01153579 [kcal/mol]       0.04826574 [kJ/mol]
      Exch-Ind22                    0.00401473 [mEh]       0.00251928 [kcal/mol]       0.01054068 [kJ/mol]
      delta HF,r (2)               -0.01467284 [mEh]      -0.00920735 [kcal/mol]      -0.03852355 [kJ/mol]

    Dispersion                     -1.95383636 [mEh]      -1.22605082 [kcal/mol]      -5.12979665 [kJ/mol]
      Disp20                       -1.94758618 [mEh]      -1.22212878 [kcal/mol]      -5.11338681 [kJ/mol]
      Disp21                        0.20060938 [mEh]       0.12588428 [kcal/mol]       0.52669985 [kJ/mol]
      Disp22 (SDQ)                  0.07964950 [mEh]       0.04998081 [kcal/mol]       0.20911972 [kJ/mol]
      Disp22 (T)                   -0.30297408 [mEh]      -0.19011911 [kcal/mol]      -0.79545835 [kJ/mol]
      Est. Disp22 (T)              -0.32176086 [mEh]      -0.20190799 [kcal/mol]      -0.84478302 [kJ/mol]
      Exch-Disp20                   0.03525181 [mEh]       0.02212084 [kcal/mol]       0.09255360 [kJ/mol]

  Total HF                          0.14557110 [mEh]       0.09134725 [kcal/mol]       0.38219687 [kJ/mol]
  Total SAPT0                      -1.76676327 [mEh]      -1.10866069 [kcal/mol]      -4.63863633 [kJ/mol]
  Total SAPT2                      -1.75564987 [mEh]      -1.10168693 [kcal/mol]      -4.60945810 [kJ/mol]
  Total SAPT2+                     -1.79715185 [mEh]      -1.12772981 [kcal/mol]      -4.71842154 [kJ/mol]

  Special recipe for scaled SAPT0 (see Manual):
    Electrostatics sSAPT0          -0.03722837 [mEh]      -0.02336115 [kcal/mol]      -0.09774307 [kJ/mol]
    Exchange sSAPT0                 0.20478638 [mEh]       0.12850540 [kcal/mol]       0.53766658 [kJ/mol]
    Induction sSAPT0               -0.02198000 [mEh]      -0.01379266 [kcal/mol]      -0.05770848 [kJ/mol]
    Dispersion sSAPT0              -1.91232111 [mEh]      -1.19999961 [kcal/mol]      -5.02079838 [kJ/mol]
  Total sSAPT0                     -1.76674309 [mEh]      -1.10864803 [kcal/mol]      -4.63858334 [kJ/mol]
  --------------------------------------------------------------------------------------------------------

*** Psi4 exiting successfully. Buy a developer a beer!
