                               Psi4 1.4a2.dev224

  ==> Input File <==

--------------------------------------------------------------------------
#Generated by lconvert.py for sapt job

memory 60 GB

molecule  {
0 1
  C      -2.530380   -0.417570    0.681310
  H      -2.559890   -0.982790   -0.250160
  H      -2.554040   -1.133860    1.502660
  H      -3.436210    0.184140    0.736770
  C      -1.276160    0.443640    0.750030
  H      -1.278080    1.025220    1.675080
  H      -1.280340    1.168560   -0.067160
  C       0.002200   -0.380720    0.678990
  H       0.007830   -1.111410    1.493830
  H       0.006250   -0.960520   -0.248820
  C       1.268330    0.462400    0.749370
  H       1.262020    1.044250    1.674250
  H       1.261640    1.187060   -0.068030
  C       2.534970   -0.380430    0.680690
  H       2.572440   -0.945720   -0.250450
  H       3.431980    0.234420    0.735580
  H       2.569210   -1.095810    1.502460
--
0 1
  C      -0.000710    0.126250    7.432550
  C       0.000360   -0.013880    8.952280
  H      -0.886670    0.450200    9.385650
  H       0.009610   -1.064660    9.245290
  H       0.879020    0.465790    9.385930
  C      -1.240170   -0.555400    6.858650
  H      -1.263470   -0.466440    5.771820
  H      -1.252250   -1.616680    7.111660
  H      -2.151110   -0.103110    7.253740
  C       1.251890   -0.531290    6.859080
  H       1.273220   -0.443000    5.772110
  H       1.285030   -1.591850    7.113170
  H       2.153710   -0.060650    7.253500
  C      -0.014960    1.606040    7.057930
  H       0.862810    2.116630    7.456880
  H      -0.015480    1.732500    5.974280
  H      -0.903070    2.099380    7.455720
units angstrom
no_reorient
symmetry c1
}

set {
scf_type DF
basis aug-cc-pvtz
freeze_core True
guess SAD
}
energy('sapt2+')
--------------------------------------------------------------------------

  //              Dimer HF             //
    Molecular point group: c1
  Charge       = 0
  Multiplicity = 1
  Basis Set: AUG-CC-PVTZ
    Blend: AUG-CC-PVTZ
  Basis Set: (AUG-CC-PVTZ AUX)
    Blend: AUG-CC-PVTZ-JKFIT
  @DF-RHF Final Energy:  -392.80893293815041
    Total Energy =                       -392.8089329381504058
  //            Monomer A HF           //
    Molecular point group: c1
  Multiplicity = 1
  Basis Set: AUG-CC-PVTZ
    Blend: AUG-CC-PVTZ
  Basis Set: (AUG-CC-PVTZ AUX)
    Blend: AUG-CC-PVTZ-JKFIT
  @DF-RHF Final Energy:  -196.40438941972434
    Total Energy =                       -196.4043894197243389
  //            Monomer B HF           //
    Molecular point group: c1

    Geometry (in Angstrom), charge = 0, multiplicity = 1:

       Center              X                  Y                   Z               Mass
    ------------   -----------------  -----------------  -----------------  -----------------
      Gh(C)          -2.529953849536    -0.448371219948    -3.388314221468    12.000000000000
      Gh(H)          -2.559463849536    -1.013591219948    -4.319784221468     1.007825032230
      Gh(H)          -2.553613849536    -1.164661219948    -2.566964221468     1.007825032230
      Gh(H)          -3.435783849536     0.153338780052    -3.332854221468     1.007825032230
      Gh(C)          -1.275733849536     0.412838780052    -3.319594221468    12.000000000000
      Gh(H)          -1.277653849536     0.994418780052    -2.394544221468     1.007825032230
      Gh(H)          -1.279913849536     1.137758780052    -4.136784221468     1.007825032230
      Gh(C)           0.002626150464    -0.411521219948    -3.390634221468    12.000000000000
      Gh(H)           0.008256150464    -1.142211219948    -2.575794221468     1.007825032230
      Gh(H)           0.006676150464    -0.991321219948    -4.318444221468     1.007825032230
      Gh(C)           1.268756150464     0.431598780052    -3.320254221468    12.000000000000
      Gh(H)           1.262446150464     1.013448780052    -2.395374221468     1.007825032230
      Gh(H)           1.262066150464     1.156258780052    -4.137654221468     1.007825032230
      Gh(C)           2.535396150464    -0.411231219948    -3.388934221468    12.000000000000
      Gh(H)           2.572866150464    -0.976521219948    -4.320074221468     1.007825032230
      Gh(H)           3.432406150464     0.203618780052    -3.334044221468     1.007825032230
      Gh(H)           2.569636150464    -1.126611219948    -2.567164221468     1.007825032230
         C           -0.000283849536     0.095448780052     3.362925778532    12.000000000000
         C            0.000786150464    -0.044681219948     4.882655778532    12.000000000000
         H           -0.886243849536     0.419398780052     5.316025778532     1.007825032230
         H            0.010036150464    -1.095461219948     5.175665778532     1.007825032230
         H            0.879446150464     0.434988780052     5.316305778532     1.007825032230
         C           -1.239743849536    -0.586201219948     2.789025778532    12.000000000000
         H           -1.263043849536    -0.497241219948     1.702195778532     1.007825032230
         H           -1.251823849536    -1.647481219948     3.042035778532     1.007825032230
         H           -2.150683849536    -0.133911219948     3.184115778532     1.007825032230
         C            1.252316150464    -0.562091219948     2.789455778532    12.000000000000
         H            1.273646150464    -0.473801219948     1.702485778532     1.007825032230
         H            1.285456150464    -1.622651219948     3.043545778532     1.007825032230
         H            2.154136150464    -0.091451219948     3.183875778532     1.007825032230
         C           -0.014533849536     1.575238780052     2.988305778532    12.000000000000
         H            0.863236150464     2.085828780052     3.387255778532     1.007825032230
         H           -0.015053849536     1.701698780052     1.904655778532     1.007825032230
         H           -0.902643849536     2.068578780052     3.386095778532     1.007825032230

  Charge       = 0
  Multiplicity = 1
  Basis Set: AUG-CC-PVTZ
    Blend: AUG-CC-PVTZ
  Basis Set: (AUG-CC-PVTZ AUX)
    Blend: AUG-CC-PVTZ-JKFIT

    Orbital Energies [Eh]
    ---------------------

    Doubly Occupied:

       1A    -11.226801     2A    -11.205599     3A    -11.205590
       4A    -11.205574     5A    -11.205538     6A     -1.106558
       7A     -0.928823     8A     -0.928688     9A     -0.928684
      10A     -0.729926    11A     -0.611862    12A     -0.611793
      13A     -0.611762    14A     -0.552881    15A     -0.552846
      16A     -0.509274    17A     -0.509229    18A     -0.509193
      19A     -0.452522    20A     -0.452395    21A     -0.452386

  @DF-RHF Final Energy:  -196.40455884589784

   => Energetics <=

    Nuclear Repulsion Energy =            199.3690195675758048
    One-Electron Energy =                -658.5513252513269435
    Two-Electron Energy =                 262.7777468378532717
    Total Energy =                       -196.4045588458978386

  Dipole Moment: [D]
     X:    -0.0000      Y:     0.0004      Z:    -0.0008     Total:     0.0009

    SAPT Results
  --------------------------------------------------------------------------------------------------------
    Electrostatics                  0.00950754 [mEh]       0.00596607 [kcal/mol]       0.02496203 [kJ/mol]
      Elst10,r                      0.01173069 [mEh]       0.00736112 [kcal/mol]       0.03079891 [kJ/mol]
      Elst12,r                     -0.00222315 [mEh]      -0.00139505 [kcal/mol]      -0.00583688 [kJ/mol]

    Exchange                        0.00650923 [mEh]       0.00408460 [kcal/mol]       0.01708999 [kJ/mol]
      Exch10                        0.00514036 [mEh]       0.00322563 [kcal/mol]       0.01349602 [kJ/mol]
      Exch10(S^2)                   0.00514034 [mEh]       0.00322561 [kcal/mol]       0.01349595 [kJ/mol]
      Exch11(S^2)                  -0.00001242 [mEh]      -0.00000780 [kcal/mol]      -0.00003262 [kJ/mol]
      Exch12(S^2)                   0.00138129 [mEh]       0.00086677 [kcal/mol]       0.00362658 [kJ/mol]

    Induction                      -0.00161825 [mEh]      -0.00101547 [kcal/mol]      -0.00424872 [kJ/mol]
      Ind20,r                      -0.00123529 [mEh]      -0.00077515 [kcal/mol]      -0.00324325 [kJ/mol]
      Ind22                        -0.00010269 [mEh]      -0.00006444 [kcal/mol]      -0.00026962 [kJ/mol]
      Exch-Ind20,r                  0.00033705 [mEh]       0.00021150 [kcal/mol]       0.00088493 [kJ/mol]
      Exch-Ind22                    0.00002802 [mEh]       0.00001758 [kcal/mol]       0.00007357 [kJ/mol]
      delta HF,r (2)               -0.00064534 [mEh]      -0.00040496 [kcal/mol]      -0.00169434 [kJ/mol]

    Dispersion                     -0.56180317 [mEh]      -0.35253681 [kcal/mol]      -1.47501403 [kJ/mol]
      Disp20                       -0.57002705 [mEh]      -0.35769737 [kcal/mol]      -1.49660580 [kJ/mol]
      Disp21                        0.07879387 [mEh]       0.04944390 [kcal/mol]       0.20687327 [kJ/mol]
      Disp22 (SDQ)                  0.02414387 [mEh]       0.01515051 [kcal/mol]       0.06338972 [kJ/mol]
      Disp22 (T)                   -0.09285338 [mEh]      -0.05826638 [kcal/mol]      -0.24378652 [kJ/mol]
      Est. Disp22 (T)              -0.09590396 [mEh]      -0.06018064 [kcal/mol]      -0.25179581 [kJ/mol]
      Exch-Disp20                   0.00119010 [mEh]       0.00074680 [kcal/mol]       0.00312460 [kJ/mol]

  Total HF                          0.01532747 [mEh]       0.00961813 [kcal/mol]       0.04024227 [kJ/mol]
  Total SAPT0                      -0.55350948 [mEh]      -0.34733244 [kcal/mol]      -1.45323893 [kJ/mol]
  Total SAPT2                      -0.55443843 [mEh]      -0.34791537 [kcal/mol]      -1.45567790 [kJ/mol]
  Total SAPT2+                     -0.54740466 [mEh]      -0.34350161 [kcal/mol]      -1.43721073 [kJ/mol]

  Special recipe for scaled SAPT0 (see Manual):
    Electrostatics sSAPT0           0.01173069 [mEh]       0.00736112 [kcal/mol]       0.03079891 [kJ/mol]
    Exchange sSAPT0                 0.00514036 [mEh]       0.00322563 [kcal/mol]       0.01349602 [kJ/mol]
    Induction sSAPT0               -0.00154358 [mEh]      -0.00096861 [kcal/mol]      -0.00405266 [kJ/mol]
    Dispersion sSAPT0              -0.56883695 [mEh]      -0.35695057 [kcal/mol]      -1.49348120 [kJ/mol]
  Total sSAPT0                     -0.55350948 [mEh]      -0.34733244 [kcal/mol]      -1.45323893 [kJ/mol]
  --------------------------------------------------------------------------------------------------------

*** Psi4 exiting successfully. Buy a developer a beer!
