                               Psi4 1.4a2.dev224

  ==> Input File <==

--------------------------------------------------------------------------
#Generated by lconvert.py for sapt job

memory 60 GB

molecule  {
0 1
  C       0.382520   -0.070610    0.766900
  C      -1.040640    0.396810    1.060940
  H      -1.771570   -0.281500    0.618330
  H      -1.224720    0.435730    2.135520
  H      -1.214070    1.393720    0.653090
  C       0.590850   -1.466820    1.347980
  H       1.602910   -1.822950    1.150100
  H       0.438970   -1.466750    2.428290
  H      -0.109920   -2.178680    0.909310
  C       1.378270    0.898430    1.399150
  H       2.404390    0.585440    1.200730
  H       1.243780    0.945970    2.480710
  H       1.248370    1.905020    0.998950
  C       0.601960   -0.111030   -0.743100
  H       0.459210    0.877040   -1.182900
  H       1.613690   -0.443460   -0.979670
  H      -0.099530   -0.797550   -1.219220
--
0 1
  C      -0.713570    0.131850    8.290160
  C       0.709240   -0.337120    7.996760
  H       0.893680   -0.376450    6.922240
  H       1.440680    0.340550    8.439500
  H       0.881510   -1.334120    8.404890
  C      -0.919970    1.528410    7.709330
  H      -1.931930    1.885390    7.906180
  H      -0.219050    2.239480    8.149060
  H      -0.766860    1.528610    6.629190
  C      -0.933860    0.172020    9.800020
  H      -1.945080    0.506300   10.036090
  H      -0.231350    0.856970   10.276860
  H      -0.793300   -0.816500   10.239470
  C      -1.710030   -0.835930    7.657020
  H      -1.581110   -1.842910    8.056600
  H      -2.735920   -0.522160    7.855410
  H      -1.575330   -0.882900    6.575440
units angstrom
no_reorient
symmetry c1
}

set {
scf_type DF
basis aug-cc-pvtz
freeze_core True
guess SAD
}
energy('sapt2+')
--------------------------------------------------------------------------

  //              Dimer HF             //
    Molecular point group: c1
  Charge       = 0
  Multiplicity = 1
  Basis Set: AUG-CC-PVTZ
    Blend: AUG-CC-PVTZ
  Basis Set: (AUG-CC-PVTZ AUX)
    Blend: AUG-CC-PVTZ-JKFIT
  @DF-RHF Final Energy:  -392.80911522856400
    Total Energy =                       -392.8091152285639964
  //            Monomer A HF           //
    Molecular point group: c1
  Multiplicity = 1
  Basis Set: AUG-CC-PVTZ
    Blend: AUG-CC-PVTZ
  Basis Set: (AUG-CC-PVTZ AUX)
    Blend: AUG-CC-PVTZ-JKFIT
  @DF-RHF Final Energy:  -196.40456844303492
    Total Energy =                       -196.4045684430349183
  //            Monomer B HF           //
    Molecular point group: c1

    Geometry (in Angstrom), charge = 0, multiplicity = 1:

       Center              X                  Y                   Z               Mass
    ------------   -----------------  -----------------  -----------------  -----------------
      Gh(C)           0.548042986021    -0.101210063384    -3.761614504211    12.000000000000
      Gh(C)          -0.875117013979     0.366209936616    -3.467574504211    12.000000000000
      Gh(H)          -1.606047013979    -0.312100063384    -3.910184504211     1.007825032230
      Gh(H)          -1.059197013979     0.405129936616    -2.392994504211     1.007825032230
      Gh(H)          -1.048547013979     1.363119936616    -3.875424504211     1.007825032230
      Gh(C)           0.756372986021    -1.497420063384    -3.180534504211    12.000000000000
      Gh(H)           1.768432986021    -1.853550063384    -3.378414504211     1.007825032230
      Gh(H)           0.604492986021    -1.497350063384    -2.100224504211     1.007825032230
      Gh(H)           0.055602986021    -2.209280063384    -3.619204504211     1.007825032230
      Gh(C)           1.543792986021     0.867829936616    -3.129364504211    12.000000000000
      Gh(H)           2.569912986021     0.554839936616    -3.327784504211     1.007825032230
      Gh(H)           1.409302986021     0.915369936616    -2.047804504211     1.007825032230
      Gh(H)           1.413892986021     1.874419936616    -3.529564504211     1.007825032230
      Gh(C)           0.767482986021    -0.141630063384    -5.271614504211    12.000000000000
      Gh(H)           0.624732986021     0.846439936616    -5.711414504211     1.007825032230
      Gh(H)           1.779212986021    -0.474060063384    -5.508184504211     1.007825032230
      Gh(H)           0.065992986021    -0.828150063384    -5.747734504211     1.007825032230
         C           -0.548047013979     0.101249936616     3.761645495789    12.000000000000
         C            0.874762986021    -0.367720063384     3.468245495789    12.000000000000
         H            1.059202986021    -0.407050063384     2.393725495789     1.007825032230
         H            1.606202986021     0.309949936616     3.910985495789     1.007825032230
         H            1.047032986021    -1.364720063384     3.876375495789     1.007825032230
         C           -0.754447013979     1.497809936616     3.180815495789    12.000000000000
         H           -1.766407013979     1.854789936616     3.377665495789     1.007825032230
         H           -0.053527013979     2.208879936616     3.620545495789     1.007825032230
         H           -0.601337013979     1.498009936616     2.100675495789     1.007825032230
         C           -0.768337013979     0.141419936616     5.271505495789    12.000000000000
         H           -1.779557013979     0.475699936616     5.507575495789     1.007825032230
         H           -0.065827013979     0.826369936616     5.748345495789     1.007825032230
         H           -0.627777013979    -0.847100063384     5.710955495789     1.007825032230
         C           -1.544507013979    -0.866530063384     3.128505495789    12.000000000000
         H           -1.415587013979    -1.873510063384     3.528085495789     1.007825032230
         H           -2.570397013979    -0.552760063384     3.326895495789     1.007825032230
         H           -1.409807013979    -0.913500063384     2.046925495789     1.007825032230

  Charge       = 0
  Multiplicity = 1
  Basis Set: AUG-CC-PVTZ
    Blend: AUG-CC-PVTZ
  Basis Set: (AUG-CC-PVTZ AUX)
    Blend: AUG-CC-PVTZ-JKFIT

    Orbital Energies [Eh]
    ---------------------

    Doubly Occupied:

       1A    -11.226887     2A    -11.205603     3A    -11.205601
       4A    -11.205580     5A    -11.205534     6A     -1.106495
       7A     -0.928763     8A     -0.928759     9A     -0.928668
      10A     -0.730025    11A     -0.611910    12A     -0.611909
      13A     -0.611483    14A     -0.552816    15A     -0.552812
      16A     -0.509277    17A     -0.509166    18A     -0.509161
      19A     -0.452510    20A     -0.452502    21A     -0.452409

  @DF-RHF Final Energy:  -196.40456823203945

   => Energetics <=

    Nuclear Repulsion Energy =            199.3549122910135907
    One-Electron Energy =                -658.5232376436164259
    Two-Electron Energy =                 262.7637571205633549
    Total Energy =                       -196.4045682320394803

  Dipole Moment: [D]
     X:     0.0002      Y:     0.0000      Z:    -0.0012     Total:     0.0013

    SAPT Results
  --------------------------------------------------------------------------------------------------------
    Electrostatics                  0.01883118 [mEh]       0.01181674 [kcal/mol]       0.04944126 [kJ/mol]
      Elst10,r                      0.01963597 [mEh]       0.01232176 [kcal/mol]       0.05155424 [kJ/mol]
      Elst12,r                     -0.00080479 [mEh]      -0.00050501 [kcal/mol]      -0.00211298 [kJ/mol]

    Exchange                        0.00344413 [mEh]       0.00216122 [kcal/mol]       0.00904256 [kJ/mol]
      Exch10                        0.00263324 [mEh]       0.00165238 [kcal/mol]       0.00691357 [kJ/mol]
      Exch10(S^2)                   0.00263323 [mEh]       0.00165237 [kcal/mol]       0.00691353 [kJ/mol]
      Exch11(S^2)                   0.00000851 [mEh]       0.00000534 [kcal/mol]       0.00002234 [kJ/mol]
      Exch12(S^2)                   0.00080238 [mEh]       0.00050350 [kcal/mol]       0.00210665 [kJ/mol]

    Induction                      -0.00089548 [mEh]      -0.00056192 [kcal/mol]      -0.00235108 [kJ/mol]
      Ind20,r                      -0.00082474 [mEh]      -0.00051753 [kcal/mol]      -0.00216536 [kJ/mol]
      Ind22                        -0.00008415 [mEh]      -0.00005281 [kcal/mol]      -0.00022094 [kJ/mol]
      Exch-Ind20,r                  0.00011148 [mEh]       0.00006996 [kcal/mol]       0.00029270 [kJ/mol]
      Exch-Ind22                    0.00001138 [mEh]       0.00000714 [kcal/mol]       0.00002987 [kJ/mol]
      delta HF,r (2)               -0.00010944 [mEh]      -0.00006868 [kcal/mol]      -0.00028734 [kJ/mol]

    Dispersion                     -0.37231844 [mEh]      -0.23363335 [kcal/mol]      -0.97752194 [kJ/mol]
      Disp20                       -0.37166661 [mEh]      -0.23322432 [kcal/mol]      -0.97581056 [kJ/mol]
      Disp21                        0.04449575 [mEh]       0.02792150 [kcal/mol]       0.11682357 [kJ/mol]
      Disp22 (SDQ)                  0.01836084 [mEh]       0.01152160 [kcal/mol]       0.04820639 [kJ/mol]
      Disp22 (T)                   -0.06208076 [mEh]      -0.03895626 [kcal/mol]      -0.16299300 [kJ/mol]
      Est. Disp22 (T)              -0.06405960 [mEh]      -0.04019801 [kcal/mol]      -0.16818846 [kJ/mol]
      Exch-Disp20                   0.00055118 [mEh]       0.00034587 [kcal/mol]       0.00144712 [kJ/mol]

  Total HF                          0.02144651 [mEh]       0.01345789 [kcal/mol]       0.05630781 [kJ/mol]
  Total SAPT0                      -0.34966892 [mEh]      -0.21942056 [kcal/mol]      -0.91805563 [kJ/mol]
  Total SAPT2                      -0.34973560 [mEh]      -0.21946240 [kcal/mol]      -0.91823070 [kJ/mol]
  Total SAPT2+                     -0.35093861 [mEh]      -0.22021730 [kcal/mol]      -0.92138920 [kJ/mol]

  Special recipe for scaled SAPT0 (see Manual):
    Electrostatics sSAPT0           0.01963597 [mEh]       0.01232176 [kcal/mol]       0.05155424 [kJ/mol]
    Exchange sSAPT0                 0.00263324 [mEh]       0.00165238 [kcal/mol]       0.00691357 [kJ/mol]
    Induction sSAPT0               -0.00082270 [mEh]      -0.00051625 [kcal/mol]      -0.00216001 [kJ/mol]
    Dispersion sSAPT0              -0.37111543 [mEh]      -0.23287845 [kcal/mol]      -0.97436344 [kJ/mol]
  Total sSAPT0                     -0.34966892 [mEh]      -0.21942056 [kcal/mol]      -0.91805563 [kJ/mol]
  --------------------------------------------------------------------------------------------------------

*** Psi4 exiting successfully. Buy a developer a beer!
