                               Psi4 1.4a2.dev224

  ==> Input File <==

--------------------------------------------------------------------------
#Generated by lconvert.py for sapt job

memory 60 GB

molecule  {
0 1
  C       0.382520   -0.070610    0.766900
  C      -1.040640    0.396810    1.060940
  H      -1.771570   -0.281500    0.618330
  H      -1.224720    0.435730    2.135520
  H      -1.214070    1.393720    0.653090
  C       0.590850   -1.466820    1.347980
  H       1.602910   -1.822950    1.150100
  H       0.438970   -1.466750    2.428290
  H      -0.109920   -2.178680    0.909310
  C       1.378270    0.898430    1.399150
  H       2.404390    0.585440    1.200730
  H       1.243780    0.945970    2.480710
  H       1.248370    1.905020    0.998950
  C       0.601960   -0.111030   -0.743100
  H       0.459210    0.877040   -1.182900
  H       1.613690   -0.443460   -0.979670
  H      -0.099530   -0.797550   -1.219220
--
0 1
  C      -0.541010    0.099970    7.105750
  C       0.881800   -0.368990    6.812350
  H       1.066240   -0.408320    5.737830
  H       1.613240    0.308680    7.255080
  H       1.054070   -1.366000    7.220470
  C      -0.747410    1.496530    6.524920
  H      -1.759370    1.853520    6.721760
  H      -0.046490    2.207610    6.964640
  H      -0.594300    1.496730    5.444770
  C      -0.761300    0.140150    8.615600
  H      -1.772520    0.474430    8.851670
  H      -0.058790    0.825100    9.092440
  H      -0.620740   -0.848370    9.055050
  C      -1.537470   -0.867800    6.472600
  H      -1.408550   -1.874780    6.872180
  H      -2.563360   -0.554030    6.670990
  H      -1.402770   -0.914780    5.391020
units angstrom
no_reorient
symmetry c1
}

set {
scf_type DF
basis aug-cc-pvtz
freeze_core True
guess SAD
}
energy('sapt2+')
--------------------------------------------------------------------------

  //              Dimer HF             //
    Molecular point group: c1
  Charge       = 0
  Multiplicity = 1
  Basis Set: AUG-CC-PVTZ
    Blend: AUG-CC-PVTZ
  Basis Set: (AUG-CC-PVTZ AUX)
    Blend: AUG-CC-PVTZ-JKFIT
  @DF-RHF Final Energy:  -392.80902575333960
    Total Energy =                       -392.8090257533395970
  //            Monomer A HF           //
    Molecular point group: c1
  Multiplicity = 1
  Basis Set: AUG-CC-PVTZ
    Blend: AUG-CC-PVTZ
  Basis Set: (AUG-CC-PVTZ AUX)
    Blend: AUG-CC-PVTZ-JKFIT
  @DF-RHF Final Energy:  -196.40457816510607
    Total Energy =                       -196.4045781651060452
  //            Monomer B HF           //
    Molecular point group: c1

    Geometry (in Angstrom), charge = 0, multiplicity = 1:

       Center              X                  Y                   Z               Mass
    ------------   -----------------  -----------------  -----------------  -----------------
      Gh(C)           0.461762986021    -0.085273189198    -3.169407070851    12.000000000000
      Gh(C)          -0.961397013979     0.382146810802    -2.875367070851    12.000000000000
      Gh(H)          -1.692327013979    -0.296163189198    -3.317977070851     1.007825032230
      Gh(H)          -1.145477013979     0.421066810802    -1.800787070851     1.007825032230
      Gh(H)          -1.134827013979     1.379056810802    -3.283217070851     1.007825032230
      Gh(C)           0.670092986021    -1.481483189198    -2.588327070851    12.000000000000
      Gh(H)           1.682152986021    -1.837613189198    -2.786207070851     1.007825032230
      Gh(H)           0.518212986021    -1.481413189198    -1.508017070851     1.007825032230
      Gh(H)          -0.030677013979    -2.193343189198    -3.026997070851     1.007825032230
      Gh(C)           1.457512986021     0.883766810802    -2.537157070851    12.000000000000
      Gh(H)           2.483632986021     0.570776810802    -2.735577070851     1.007825032230
      Gh(H)           1.323022986021     0.931306810802    -1.455597070851     1.007825032230
      Gh(H)           1.327612986021     1.890356810802    -2.937357070851     1.007825032230
      Gh(C)           0.681202986021    -0.125693189198    -4.679407070851    12.000000000000
      Gh(H)           0.538452986021     0.862376810802    -5.119207070851     1.007825032230
      Gh(H)           1.692932986021    -0.458123189198    -4.915977070851     1.007825032230
      Gh(H)          -0.020287013979    -0.812213189198    -5.155527070851     1.007825032230
         C           -0.461767013979     0.085306810802     3.169442929149    12.000000000000
         C            0.961042986021    -0.383653189198     2.876042929149    12.000000000000
         H            1.145482986021    -0.422983189198     1.801522929149     1.007825032230
         H            1.692482986021     0.294016810802     3.318772929149     1.007825032230
         H            1.133312986021    -1.380663189198     3.284162929149     1.007825032230
         C           -0.668167013979     1.481866810802     2.588612929149    12.000000000000
         H           -1.680127013979     1.838856810802     2.785452929149     1.007825032230
         H            0.032752986021     2.192946810802     3.028332929149     1.007825032230
         H           -0.515057013979     1.482066810802     1.508462929149     1.007825032230
         C           -0.682057013979     0.125486810802     4.679292929149    12.000000000000
         H           -1.693277013979     0.459766810802     4.915362929149     1.007825032230
         H            0.020452986021     0.810436810802     5.156132929149     1.007825032230
         H           -0.541497013979    -0.863033189198     5.118742929149     1.007825032230
         C           -1.458227013979    -0.882463189198     2.536292929149    12.000000000000
         H           -1.329307013979    -1.889443189198     2.935872929149     1.007825032230
         H           -2.484117013979    -0.568693189198     2.734682929149     1.007825032230
         H           -1.323527013979    -0.929443189198     1.454712929149     1.007825032230

  Charge       = 0
  Multiplicity = 1
  Basis Set: AUG-CC-PVTZ
    Blend: AUG-CC-PVTZ
  Basis Set: (AUG-CC-PVTZ AUX)
    Blend: AUG-CC-PVTZ-JKFIT

    Orbital Energies [Eh]
    ---------------------

    Doubly Occupied:

       1A    -11.226885     2A    -11.205607     3A    -11.205605
       4A    -11.205584     5A    -11.205536     6A     -1.106497
       7A     -0.928763     8A     -0.928760     9A     -0.928670
      10A     -0.730027    11A     -0.611912    12A     -0.611910
      13A     -0.611483    14A     -0.552816    15A     -0.552812
      16A     -0.509278    17A     -0.509165    18A     -0.509161
      19A     -0.452510    20A     -0.452504    21A     -0.452412

  @DF-RHF Final Energy:  -196.40457777226607

   => Energetics <=

    Nuclear Repulsion Energy =            199.3551409400724026
    One-Electron Energy =                -658.5236545333925733
    Two-Electron Energy =                 262.7639358210541332
    Total Energy =                       -196.4045777722660659

  Dipole Moment: [D]
     X:     0.0002      Y:     0.0000      Z:    -0.0012     Total:     0.0012

    SAPT Results
  --------------------------------------------------------------------------------------------------------
    Electrostatics                  0.00366846 [mEh]       0.00230199 [kcal/mol]       0.00963153 [kJ/mol]
      Elst10,r                      0.01817791 [mEh]       0.01140681 [kcal/mol]       0.04772609 [kJ/mol]
      Elst12,r                     -0.01450945 [mEh]      -0.00910482 [kcal/mol]      -0.03809456 [kJ/mol]

    Exchange                        0.15161393 [mEh]       0.09513918 [kcal/mol]       0.39806231 [kJ/mol]
      Exch10                        0.12570413 [mEh]       0.07888053 [kcal/mol]       0.33003615 [kJ/mol]
      Exch10(S^2)                   0.12568584 [mEh]       0.07886906 [kcal/mol]       0.32998814 [kJ/mol]
      Exch11(S^2)                   0.00270288 [mEh]       0.00169608 [kcal/mol]       0.00709641 [kJ/mol]
      Exch12(S^2)                   0.02320692 [mEh]       0.01456256 [kcal/mol]       0.06092976 [kJ/mol]

    Induction                      -0.01507710 [mEh]      -0.00946102 [kcal/mol]      -0.03958491 [kJ/mol]
      Ind20,r                      -0.01402131 [mEh]      -0.00879850 [kcal/mol]      -0.03681294 [kJ/mol]
      Ind22                        -0.00310744 [mEh]      -0.00194995 [kcal/mol]      -0.00815859 [kJ/mol]
      Exch-Ind20,r                  0.00779862 [mEh]       0.00489371 [kcal/mol]       0.02047527 [kJ/mol]
      Exch-Ind22                    0.00172835 [mEh]       0.00108456 [kcal/mol]       0.00453779 [kJ/mol]
      delta HF,r (2)               -0.00747531 [mEh]      -0.00469083 [kcal/mol]      -0.01962643 [kJ/mol]

    Dispersion                     -1.33363950 [mEh]      -0.83687142 [kcal/mol]      -3.50147003 [kJ/mol]
      Disp20                       -1.30587440 [mEh]      -0.81944855 [kcal/mol]      -3.42857275 [kJ/mol]
      Disp21                        0.11374724 [mEh]       0.07137747 [kcal/mol]       0.29864335 [kJ/mol]
      Disp22 (SDQ)                  0.06004698 [mEh]       0.03768005 [kcal/mol]       0.15765333 [kJ/mol]
      Disp22 (T)                   -0.20914345 [mEh]      -0.13123950 [kcal/mol]      -0.54910606 [kJ/mol]
      Est. Disp22 (T)              -0.22126894 [mEh]      -0.13884836 [kcal/mol]      -0.58094153 [kJ/mol]
      Exch-Disp20                   0.01970961 [mEh]       0.01236797 [kcal/mol]       0.05174757 [kJ/mol]

  Total HF                          0.13018403 [mEh]       0.08169171 [kcal/mol]       0.34179813 [kJ/mol]
  Total SAPT0                      -1.15598075 [mEh]      -0.72538888 [kcal/mol]      -3.03502705 [kJ/mol]
  Total SAPT2                      -1.14595950 [mEh]      -0.71910044 [kcal/mol]      -3.00871625 [kJ/mol]
  Total SAPT2+                     -1.19343421 [mEh]      -0.74889127 [kcal/mol]      -3.13336109 [kJ/mol]

  Special recipe for scaled SAPT0 (see Manual):
    Electrostatics sSAPT0           0.01817791 [mEh]       0.01140681 [kcal/mol]       0.04772609 [kJ/mol]
    Exchange sSAPT0                 0.12570413 [mEh]       0.07888053 [kcal/mol]       0.33003615 [kJ/mol]
    Induction sSAPT0               -0.01369460 [mEh]      -0.00859349 [kcal/mol]      -0.03595517 [kJ/mol]
    Dispersion sSAPT0              -1.28615618 [mEh]      -0.80707519 [kcal/mol]      -3.37680259 [kJ/mol]
  Total sSAPT0                     -1.15596875 [mEh]      -0.72538134 [kcal/mol]      -3.03499553 [kJ/mol]
  --------------------------------------------------------------------------------------------------------

*** Psi4 exiting successfully. Buy a developer a beer!
