                               Psi4 1.4a2.dev224

  ==> Input File <==

--------------------------------------------------------------------------
#Generated by lconvert.py for sapt job

memory 60 GB

molecule  {
0 1
  C       0.799910   -1.022050    0.687740
  H       0.853560   -1.122050   -0.398010
  H       1.491400   -1.744170    1.119720
  C       1.116890    0.424950    1.099660
  H       1.838140    0.890140    0.430450
  H       1.555570    0.439830    2.097080
  C      -0.244560    1.165690    1.102980
  H      -0.258080    2.000860    0.405320
  H      -0.448800    1.577000    2.090980
  C      -1.298710    0.103810    0.739310
  H      -1.473560    0.105240   -0.338000
  H      -2.256730    0.278040    1.227160
  C      -0.646880   -1.220070    1.136310
  H      -1.124440   -2.087630    0.682990
  H      -0.686020   -1.345280    2.220220
--
0 1
  C       0.071680    0.136720    6.594200
  C      -0.024670   -0.015370    8.109840
  H       0.967880   -0.030830    8.562200
  H      -0.583590    0.812520    8.548280
  H      -0.531830   -0.944030    8.375190
  C       0.785730    1.443620    6.258580
  H       0.867250    1.577120    5.178890
  H       0.242260    2.298310    6.664080
  H       1.793330    1.454270    6.676810
  C      -1.333340    0.156540    5.996880
  H      -1.296410    0.273730    4.913030
  H      -1.915640    0.983970    6.405230
  H      -1.863240   -0.771240    6.218210
  C       0.859570   -1.036770    6.016860
  H       0.364350   -1.983760    6.237110
  H       0.954420   -0.949580    4.933730
  H       1.864290   -1.074170    6.440610
units angstrom
no_reorient
symmetry c1
}

set {
scf_type DF
basis aug-cc-pvtz
freeze_core True
guess SAD
}
energy('sapt2+')
--------------------------------------------------------------------------

  //              Dimer HF             //
    Molecular point group: c1
  Charge       = 0
  Multiplicity = 1
  Basis Set: AUG-CC-PVTZ
    Blend: AUG-CC-PVTZ
  Basis Set: (AUG-CC-PVTZ AUX)
    Blend: AUG-CC-PVTZ-JKFIT
  @DF-RHF Final Energy:  -391.63458524001243
    Total Energy =                       -391.6345852400124841
  //            Monomer A HF           //
    Molecular point group: c1
  Multiplicity = 1
  Basis Set: AUG-CC-PVTZ
    Blend: AUG-CC-PVTZ
  Basis Set: (AUG-CC-PVTZ AUX)
    Blend: AUG-CC-PVTZ-JKFIT
  @DF-RHF Final Energy:  -195.23023590191292
    Total Energy =                       -195.2302359019129199
  //            Monomer B HF           //
    Molecular point group: c1

    Geometry (in Angstrom), charge = 0, multiplicity = 1:

       Center              X                  Y                   Z               Mass
    ------------   -----------------  -----------------  -----------------  -----------------
      Gh(C)           0.790173065479    -1.038144042528    -3.126604858820    12.000000000000
      Gh(H)           0.843823065479    -1.138144042528    -4.212354858820     1.007825032230
      Gh(H)           1.481663065479    -1.760264042528    -2.694624858820     1.007825032230
      Gh(C)           1.107153065479     0.408855957472    -2.714684858820    12.000000000000
      Gh(H)           1.828403065479     0.874045957472    -3.383894858820     1.007825032230
      Gh(H)           1.545833065479     0.423735957472    -1.717264858820     1.007825032230
      Gh(C)          -0.254296934521     1.149595957472    -2.711364858820    12.000000000000
      Gh(H)          -0.267816934521     1.984765957472    -3.409024858820     1.007825032230
      Gh(H)          -0.458536934521     1.560905957472    -1.723364858820     1.007825032230
      Gh(C)          -1.308446934521     0.087715957472    -3.075034858820    12.000000000000
      Gh(H)          -1.483296934521     0.089145957472    -4.152344858820     1.007825032230
      Gh(H)          -2.266466934521     0.261945957472    -2.587184858820     1.007825032230
      Gh(C)          -0.656616934521    -1.236164042528    -2.678034858820    12.000000000000
      Gh(H)          -1.134176934521    -2.103724042528    -3.131354858820     1.007825032230
      Gh(H)          -0.695756934521    -1.361374042528    -1.594124858820     1.007825032230
         C            0.061943065479     0.120625957472     2.779855141180    12.000000000000
         C           -0.034406934521    -0.031464042528     4.295495141180    12.000000000000
         H            0.958143065479    -0.046924042528     4.747855141180     1.007825032230
         H           -0.593326934521     0.796425957472     4.733935141180     1.007825032230
         H           -0.541566934521    -0.960124042528     4.560845141180     1.007825032230
         C            0.775993065479     1.427525957472     2.444235141180    12.000000000000
         H            0.857513065479     1.561025957472     1.364545141180     1.007825032230
         H            0.232523065479     2.282215957472     2.849735141180     1.007825032230
         H            1.783593065479     1.438175957472     2.862465141180     1.007825032230
         C           -1.343076934521     0.140445957472     2.182535141180    12.000000000000
         H           -1.306146934521     0.257635957472     1.098685141180     1.007825032230
         H           -1.925376934521     0.967875957472     2.590885141180     1.007825032230
         H           -1.872976934521    -0.787334042528     2.403865141180     1.007825032230
         C            0.849833065479    -1.052864042528     2.202515141180    12.000000000000
         H            0.354613065479    -1.999854042528     2.422765141180     1.007825032230
         H            0.944683065479    -0.965674042528     1.119385141180     1.007825032230
         H            1.854553065479    -1.090264042528     2.626265141180     1.007825032230

  Charge       = 0
  Multiplicity = 1
  Basis Set: AUG-CC-PVTZ
    Blend: AUG-CC-PVTZ
  Basis Set: (AUG-CC-PVTZ AUX)
    Blend: AUG-CC-PVTZ-JKFIT

    Orbital Energies [Eh]
    ---------------------

    Doubly Occupied:

       1A    -11.226917     2A    -11.205653     3A    -11.205636
       4A    -11.205601     5A    -11.205505     6A     -1.106435
       7A     -0.928939     8A     -0.928741     9A     -0.928461
      10A     -0.729989    11A     -0.612023    12A     -0.611848
      13A     -0.611369    14A     -0.553016    15A     -0.552631
      16A     -0.509299    17A     -0.509184    18A     -0.509174
      19A     -0.452614    20A     -0.452456    21A     -0.452265

  @DF-RHF Final Energy:  -196.40457729518278

   => Energetics <=

    Nuclear Repulsion Energy =            199.3447969761765819
    One-Electron Energy =                -658.5032533527926262
    Two-Electron Energy =                 262.7538790814332970
    Total Energy =                       -196.4045772951827757

  Dipole Moment: [D]
     X:     0.0002      Y:     0.0003      Z:    -0.0016     Total:     0.0017

    SAPT Results
  --------------------------------------------------------------------------------------------------------
    Electrostatics                 -0.09563197 [mEh]      -0.06000997 [kcal/mol]      -0.25108171 [kJ/mol]
      Elst10,r                     -0.06102271 [mEh]      -0.03829233 [kcal/mol]      -0.16021510 [kJ/mol]
      Elst12,r                     -0.03460926 [mEh]      -0.02171764 [kcal/mol]      -0.09086660 [kJ/mol]

    Exchange                        0.38189607 [mEh]       0.23964340 [kcal/mol]       1.00266801 [kJ/mol]
      Exch10                        0.32440519 [mEh]       0.20356733 [kcal/mol]       0.85172570 [kJ/mol]
      Exch10(S^2)                   0.32431994 [mEh]       0.20351383 [kcal/mol]       0.85150188 [kJ/mol]
      Exch11(S^2)                   0.00683977 [mEh]       0.00429202 [kcal/mol]       0.01795782 [kJ/mol]
      Exch12(S^2)                   0.05065112 [mEh]       0.03178406 [kcal/mol]       0.13298449 [kJ/mol]

    Induction                      -0.03779545 [mEh]      -0.02371700 [kcal/mol]      -0.09923194 [kJ/mol]
      Ind20,r                      -0.03935227 [mEh]      -0.02469392 [kcal/mol]      -0.10331938 [kJ/mol]
      Ind22                        -0.00848934 [mEh]      -0.00532714 [kcal/mol]      -0.02228875 [kJ/mol]
      Exch-Ind20,r                  0.02836588 [mEh]       0.01779986 [kcal/mol]       0.07447462 [kJ/mol]
      Exch-Ind22                    0.00611928 [mEh]       0.00383991 [kcal/mol]       0.01606617 [kJ/mol]
      delta HF,r (2)               -0.02443900 [mEh]      -0.01533571 [kcal/mol]      -0.06416459 [kJ/mol]

    Dispersion                     -2.16358136 [mEh]      -1.35766780 [kcal/mol]      -5.68048207 [kJ/mol]
      Disp20                       -2.15210770 [mEh]      -1.35046797 [kcal/mol]      -5.65035798 [kJ/mol]
      Disp21                        0.22114410 [mEh]       0.13877002 [kcal/mol]       0.58061374 [kJ/mol]
      Disp22 (SDQ)                  0.07707072 [mEh]       0.04836261 [kcal/mol]       0.20234914 [kJ/mol]
      Disp22 (T)                   -0.33751061 [mEh]      -0.21179110 [kcal/mol]      -0.88613398 [kJ/mol]
      Est. Disp22 (T)              -0.36103496 [mEh]      -0.22655286 [kcal/mol]      -0.94789715 [kJ/mol]
      Exch-Disp20                   0.05134648 [mEh]       0.03222041 [kcal/mol]       0.13481017 [kJ/mol]

  Total HF                          0.22795708 [mEh]       0.14304523 [kcal/mol]       0.59850124 [kJ/mol]
  Total SAPT0                      -1.87280413 [mEh]      -1.17520233 [kcal/mol]      -4.91704656 [kJ/mol]
  Total SAPT2                      -1.85229256 [mEh]      -1.16233113 [kcal/mol]      -4.86319345 [kJ/mol]
  Total SAPT2+                     -1.91511270 [mEh]      -1.20175136 [kcal/mol]      -5.02812771 [kJ/mol]

  Special recipe for scaled SAPT0 (see Manual):
    Electrostatics sSAPT0          -0.06102271 [mEh]      -0.03829233 [kcal/mol]      -0.16021510 [kJ/mol]
    Exchange sSAPT0                 0.32440519 [mEh]       0.20356733 [kcal/mol]       0.85172570 [kJ/mol]
    Induction sSAPT0               -0.03540302 [mEh]      -0.02221573 [kcal/mol]      -0.09295061 [kJ/mol]
    Dispersion sSAPT0              -2.10072071 [mEh]      -1.31822215 [kcal/mol]      -5.51544147 [kJ/mol]
  Total sSAPT0                     -1.87274125 [mEh]      -1.17516288 [kcal/mol]      -4.91688148 [kJ/mol]
  --------------------------------------------------------------------------------------------------------

*** Psi4 exiting successfully. Buy a developer a beer!
