                               Psi4 1.4a2.dev224

  ==> Input File <==

--------------------------------------------------------------------------
#Generated by lconvert.py for sapt job

memory 60 GB

molecule  {
0 1
  C       0.799910   -1.022050    0.687740
  H       0.853560   -1.122050   -0.398010
  H       1.491400   -1.744170    1.119720
  C       1.116890    0.424950    1.099660
  H       1.838140    0.890140    0.430450
  H       1.555570    0.439830    2.097080
  C      -0.244560    1.165690    1.102980
  H      -0.258080    2.000860    0.405320
  H      -0.448800    1.577000    2.090980
  C      -1.298710    0.103810    0.739310
  H      -1.473560    0.105240   -0.338000
  H      -2.256730    0.278040    1.227160
  C      -0.646880   -1.220070    1.136310
  H      -1.124440   -2.087630    0.682990
  H      -0.686020   -1.345280    2.220220
--
0 1
  C       0.094150    0.180480    7.600880
  C      -0.002200    0.028390    9.116510
  H       0.990350    0.012930    9.568870
  H      -0.561120    0.856280    9.554950
  H      -0.509360   -0.900270    9.381860
  C       0.808200    1.487380    7.265250
  H       0.889720    1.620880    6.185570
  H       0.264730    2.342070    7.670750
  H       1.815800    1.498040    7.683480
  C      -1.310870    0.200310    7.003560
  H      -1.273940    0.317490    5.919710
  H      -1.893170    1.027730    7.411900
  H      -1.840770   -0.727480    7.224880
  C       0.882040   -0.993010    7.023540
  H       0.386820   -1.940000    7.243780
  H       0.976890   -0.905820    5.940400
  H       1.886760   -1.030410    7.447280
units angstrom
no_reorient
symmetry c1
}

set {
scf_type DF
basis aug-cc-pvtz
freeze_core True
guess SAD
}
energy('sapt2+')
--------------------------------------------------------------------------

  //              Dimer HF             //
    Molecular point group: c1
  Charge       = 0
  Multiplicity = 1
  Basis Set: AUG-CC-PVTZ
    Blend: AUG-CC-PVTZ
  Basis Set: (AUG-CC-PVTZ AUX)
    Blend: AUG-CC-PVTZ-JKFIT
  @DF-RHF Final Energy:  -391.63476260728442
    Total Energy =                       -391.6347626072844150
  //            Monomer A HF           //
    Molecular point group: c1
  Multiplicity = 1
  Basis Set: AUG-CC-PVTZ
    Blend: AUG-CC-PVTZ
  Basis Set: (AUG-CC-PVTZ AUX)
    Blend: AUG-CC-PVTZ-JKFIT
  @DF-RHF Final Energy:  -195.23022281354127
    Total Energy =                       -195.2302228135412747
  //            Monomer B HF           //
    Molecular point group: c1

    Geometry (in Angstrom), charge = 0, multiplicity = 1:

       Center              X                  Y                   Z               Mass
    ------------   -----------------  -----------------  -----------------  -----------------
      Gh(C)           0.778778780919    -1.060335161840    -3.637078580269    12.000000000000
      Gh(H)           0.832428780919    -1.160335161840    -4.722828580269     1.007825032230
      Gh(H)           1.470268780919    -1.782455161840    -3.205098580269     1.007825032230
      Gh(C)           1.095758780919     0.386664838160    -3.225158580269    12.000000000000
      Gh(H)           1.817008780919     0.851854838160    -3.894368580269     1.007825032230
      Gh(H)           1.534438780919     0.401544838160    -2.227738580269     1.007825032230
      Gh(C)          -0.265691219081     1.127404838160    -3.221838580269    12.000000000000
      Gh(H)          -0.279211219081     1.962574838160    -3.919498580269     1.007825032230
      Gh(H)          -0.469931219081     1.538714838160    -2.233838580269     1.007825032230
      Gh(C)          -1.319841219081     0.065524838160    -3.585508580269    12.000000000000
      Gh(H)          -1.494691219081     0.066954838160    -4.662818580269     1.007825032230
      Gh(H)          -2.277861219081     0.239754838160    -3.097658580269     1.007825032230
      Gh(C)          -0.668011219081    -1.258355161840    -3.188508580269    12.000000000000
      Gh(H)          -1.145571219081    -2.125915161840    -3.641828580269     1.007825032230
      Gh(H)          -0.707151219081    -1.383565161840    -2.104598580269     1.007825032230
         C            0.073018780919     0.142194838160     3.276061419731    12.000000000000
         C           -0.023331219081    -0.009895161840     4.791691419731    12.000000000000
         H            0.969218780919    -0.025355161840     5.244051419731     1.007825032230
         H           -0.582251219081     0.817994838160     5.230131419731     1.007825032230
         H           -0.530491219081    -0.938555161840     5.057041419731     1.007825032230
         C            0.787068780919     1.449094838160     2.940431419731    12.000000000000
         H            0.868588780919     1.582594838160     1.860751419731     1.007825032230
         H            0.243598780919     2.303784838160     3.345931419731     1.007825032230
         H            1.794668780919     1.459754838160     3.358661419731     1.007825032230
         C           -1.332001219081     0.162024838160     2.678741419731    12.000000000000
         H           -1.295071219081     0.279204838160     1.594891419731     1.007825032230
         H           -1.914301219081     0.989444838160     3.087081419731     1.007825032230
         H           -1.861901219081    -0.765765161840     2.900061419731     1.007825032230
         C            0.860908780919    -1.031295161840     2.698721419731    12.000000000000
         H            0.365688780919    -1.978285161840     2.918961419731     1.007825032230
         H            0.955758780919    -0.944105161840     1.615581419731     1.007825032230
         H            1.865628780919    -1.068695161840     3.122461419731     1.007825032230

  Charge       = 0
  Multiplicity = 1
  Basis Set: AUG-CC-PVTZ
    Blend: AUG-CC-PVTZ
  Basis Set: (AUG-CC-PVTZ AUX)
    Blend: AUG-CC-PVTZ-JKFIT

    Orbital Energies [Eh]
    ---------------------

    Doubly Occupied:

       1A    -11.226917     2A    -11.205649     3A    -11.205633
       4A    -11.205596     5A    -11.205501     6A     -1.106436
       7A     -0.928938     8A     -0.928741     9A     -0.928460
      10A     -0.729990    11A     -0.612022    12A     -0.611849
      13A     -0.611367    14A     -0.553014    15A     -0.552631
      16A     -0.509298    17A     -0.509184    18A     -0.509173
      19A     -0.452615    20A     -0.452455    21A     -0.452265

  @DF-RHF Final Energy:  -196.40456510520670

   => Energetics <=

    Nuclear Repulsion Energy =            199.3449814611988131
    One-Electron Energy =                -658.5036453005877775
    Two-Electron Energy =                 262.7540987341822643
    Total Energy =                       -196.4045651052067001

  Dipole Moment: [D]
     X:     0.0002      Y:     0.0003      Z:    -0.0017     Total:     0.0017

    SAPT Results
  --------------------------------------------------------------------------------------------------------
    Electrostatics                  0.01120766 [mEh]       0.00703291 [kcal/mol]       0.02942571 [kJ/mol]
      Elst10,r                      0.01430043 [mEh]       0.00897366 [kcal/mol]       0.03754578 [kJ/mol]
      Elst12,r                     -0.00309277 [mEh]      -0.00194074 [kcal/mol]      -0.00812007 [kJ/mol]

    Exchange                        0.01628403 [mEh]       0.01021838 [kcal/mol]       0.04275372 [kJ/mol]
      Exch10                        0.01301873 [mEh]       0.00816938 [kcal/mol]       0.03418068 [kJ/mol]
      Exch10(S^2)                   0.01301852 [mEh]       0.00816924 [kcal/mol]       0.03418011 [kJ/mol]
      Exch11(S^2)                   0.00005110 [mEh]       0.00003207 [kcal/mol]       0.00013418 [kJ/mol]
      Exch12(S^2)                   0.00321419 [mEh]       0.00201694 [kcal/mol]       0.00843887 [kJ/mol]

    Induction                      -0.00219946 [mEh]      -0.00138018 [kcal/mol]      -0.00577468 [kJ/mol]
      Ind20,r                      -0.00218988 [mEh]      -0.00137417 [kcal/mol]      -0.00574953 [kJ/mol]
      Ind22                        -0.00030019 [mEh]      -0.00018837 [kcal/mol]      -0.00078816 [kJ/mol]
      Exch-Ind20,r                  0.00079104 [mEh]       0.00049638 [kcal/mol]       0.00207686 [kJ/mol]
      Exch-Ind22                    0.00010844 [mEh]       0.00006805 [kcal/mol]       0.00028470 [kJ/mol]
      delta HF,r (2)               -0.00060886 [mEh]      -0.00038206 [kcal/mol]      -0.00159855 [kJ/mol]

    Dispersion                     -0.66805822 [mEh]      -0.41921286 [kcal/mol]      -1.75398661 [kJ/mol]
      Disp20                       -0.67276630 [mEh]      -0.42216723 [kcal/mol]      -1.76634768 [kJ/mol]
      Disp21                        0.09185042 [mEh]       0.05763701 [kcal/mol]       0.24115324 [kJ/mol]
      Disp22 (SDQ)                  0.02551742 [mEh]       0.01601242 [kcal/mol]       0.06699597 [kJ/mol]
      Disp22 (T)                   -0.11105200 [mEh]      -0.06968618 [kcal/mol]      -0.29156698 [kJ/mol]
      Est. Disp22 (T)              -0.11531663 [mEh]      -0.07236228 [kcal/mol]      -0.30276377 [kJ/mol]
      Exch-Disp20                   0.00265688 [mEh]       0.00166722 [kcal/mol]       0.00697563 [kJ/mol]

  Total HF                          0.02531146 [mEh]       0.01588318 [kcal/mol]       0.06645524 [kJ/mol]
  Total SAPT0                      -0.64479796 [mEh]      -0.40461683 [kcal/mol]      -1.69291681 [kJ/mol]
  Total SAPT2                      -0.64481719 [mEh]      -0.40462889 [kcal/mol]      -1.69296729 [kJ/mol]
  Total SAPT2+                     -0.64276598 [mEh]      -0.40334174 [kcal/mol]      -1.68758186 [kJ/mol]

  Special recipe for scaled SAPT0 (see Manual):
    Electrostatics sSAPT0           0.01430043 [mEh]       0.00897366 [kcal/mol]       0.03754578 [kJ/mol]
    Exchange sSAPT0                 0.01301873 [mEh]       0.00816938 [kcal/mol]       0.03418068 [kJ/mol]
    Induction sSAPT0               -0.00200766 [mEh]      -0.00125983 [kcal/mol]      -0.00527112 [kJ/mol]
    Dispersion sSAPT0              -0.67010929 [mEh]      -0.42049993 [kcal/mol]      -1.75937170 [kJ/mol]
  Total sSAPT0                     -0.64479779 [mEh]      -0.40461672 [kcal/mol]      -1.69291635 [kJ/mol]
  --------------------------------------------------------------------------------------------------------

*** Psi4 exiting successfully. Buy a developer a beer!
