                               Psi4 1.4a2.dev224

  ==> Input File <==

--------------------------------------------------------------------------
#Generated by lconvert.py for sapt job

memory 50 GB

molecule  {
0 1
  C       0.956880   -0.891850    1.141950
  H       1.504570   -1.278360    0.283420
  H       1.421380   -1.314780    2.031030
  C       0.990950    0.658510    1.145500
  H       1.510590    1.023100    0.259950
  H       1.516260    1.059820    2.010540
  C      -0.479450    1.102320    1.103880
  H      -0.616270    2.064880    0.613570
  H      -0.874740    1.189070    2.118070
  C      -1.182110   -0.052800    0.393350
  H      -0.948880   -0.026830   -0.673800
  H      -2.265660   -0.033560    0.501270
  C      -0.530660   -1.274890    1.039310
  H      -0.690390   -2.197020    0.482990
  H      -0.950850   -1.415410    2.036750
--
0 1
  C      -1.111410   -0.342550    5.995550
  H      -1.444540   -0.105850    4.982960
  H      -1.916190   -0.885650    6.488530
  C       0.202200   -1.138100    5.947780
  H       0.252150   -1.795840    5.081650
  H       0.282490   -1.769460    6.832170
  C       1.331520   -0.075390    5.948380
  H       1.952780   -0.136070    5.056510
  H       1.988930   -0.225270    6.803790
  C       0.621340    1.286280    6.056250
  H       0.441480    1.694770    5.060250
  H       1.201730    2.020680    6.612220
  C      -0.720710    0.951810    6.706060
  H      -1.460380    1.744320    6.601180
  H      -0.580670    0.760160    7.772610
units angstrom
no_reorient
symmetry c1
}

set {
scf_type DF
basis aug-cc-pvtz
freeze_core True
guess SAD
}
energy('sapt2+')
--------------------------------------------------------------------------

  //              Dimer HF             //
    Molecular point group: c1
  Charge       = 0
  Multiplicity = 1
  Basis Set: AUG-CC-PVTZ
    Blend: AUG-CC-PVTZ
  Basis Set: (AUG-CC-PVTZ AUX)
    Blend: AUG-CC-PVTZ-JKFIT
  @DF-RHF Final Energy:  -390.46009927838168
    Total Energy =                       -390.4600992783816764
  //            Monomer A HF           //
    Molecular point group: c1
  Multiplicity = 1
  Basis Set: AUG-CC-PVTZ
    Blend: AUG-CC-PVTZ
  Basis Set: (AUG-CC-PVTZ AUX)
    Blend: AUG-CC-PVTZ-JKFIT
  @DF-RHF Final Energy:  -195.23015411418081
    Total Energy =                       -195.2301541141808059
  //            Monomer B HF           //
    Molecular point group: c1

    Geometry (in Angstrom), charge = 0, multiplicity = 1:

       Center              X                  Y                   Z               Mass
    ------------   -----------------  -----------------  -----------------  -----------------
      Gh(C)           0.947826380215    -0.913652031126    -2.405848411344    12.000000000000
      Gh(H)           1.495516380215    -1.300162031126    -3.264378411344     1.007825032230
      Gh(H)           1.412326380215    -1.336582031126    -1.516768411344     1.007825032230
      Gh(C)           0.981896380215     0.636707968874    -2.402298411344    12.000000000000
      Gh(H)           1.501536380215     1.001297968874    -3.287848411344     1.007825032230
      Gh(H)           1.507206380215     1.038017968874    -1.537258411344     1.007825032230
      Gh(C)          -0.488503619785     1.080517968874    -2.443918411344    12.000000000000
      Gh(H)          -0.625323619785     2.043077968874    -2.934228411344     1.007825032230
      Gh(H)          -0.883793619785     1.167267968874    -1.429728411344     1.007825032230
      Gh(C)          -1.191163619785    -0.074602031126    -3.154448411344    12.000000000000
      Gh(H)          -0.957933619785    -0.048632031126    -4.221598411344     1.007825032230
      Gh(H)          -2.274713619785    -0.055362031126    -3.046528411344     1.007825032230
      Gh(C)          -0.539713619785    -1.296692031126    -2.508488411344    12.000000000000
      Gh(H)          -0.699443619785    -2.218822031126    -3.064808411344     1.007825032230
      Gh(H)          -0.959903619785    -1.437212031126    -1.511048411344     1.007825032230
         C           -1.120463619785    -0.364352031126     2.447751588656    12.000000000000
         H           -1.453593619785    -0.127652031126     1.435161588656     1.007825032230
         H           -1.925243619785    -0.907452031126     2.940731588656     1.007825032230
         C            0.193146380215    -1.159902031126     2.399981588656    12.000000000000
         H            0.243096380215    -1.817642031126     1.533851588656     1.007825032230
         H            0.273436380215    -1.791262031126     3.284371588656     1.007825032230
         C            1.322466380215    -0.097192031126     2.400581588656    12.000000000000
         H            1.943726380215    -0.157872031126     1.508711588656     1.007825032230
         H            1.979876380215    -0.247072031126     3.255991588656     1.007825032230
         C            0.612286380215     1.264477968874     2.508451588656    12.000000000000
         H            0.432426380215     1.672967968874     1.512451588656     1.007825032230
         H            1.192676380215     1.998877968874     3.064421588656     1.007825032230
         C           -0.729763619785     0.930007968874     3.158261588656    12.000000000000
         H           -1.469433619785     1.722517968874     3.053381588656     1.007825032230
         H           -0.589723619785     0.738357968874     4.224811588656     1.007825032230

  Charge       = 0
  Multiplicity = 1
  Basis Set: AUG-CC-PVTZ
    Blend: AUG-CC-PVTZ
  Basis Set: (AUG-CC-PVTZ AUX)
    Blend: AUG-CC-PVTZ-JKFIT

    Orbital Energies [Eh]
    ---------------------

    Doubly Occupied:

       1A    -11.210426     2A    -11.210047     3A    -11.210018
       4A    -11.209406     5A    -11.209283     6A     -1.116275
       7A     -0.956683     8A     -0.955845     9A     -0.776889
      10A     -0.767197    11A     -0.649698    12A     -0.644635
      13A     -0.569794    14A     -0.567943    15A     -0.475250
      16A     -0.474345    17A     -0.463480    18A     -0.460298
      19A     -0.459144    20A     -0.448716

  @DF-RHF Final Energy:  -195.23015945180404

   => Energetics <=

    Nuclear Repulsion Energy =            188.3784059783559428
    One-Electron Energy =                -635.5463818706662096
    Two-Electron Energy =                 251.9378164405062250
    Total Energy =                       -195.2301594518040417

  Dipole Moment: [D]
     X:    -0.0118      Y:     0.0103      Z:     0.0051     Total:     0.0165

    SAPT Results
  --------------------------------------------------------------------------------------------------------
    Electrostatics                 -0.10503523 [mEh]      -0.06591060 [kcal/mol]      -0.27576995 [kJ/mol]
      Elst10,r                     -0.07419860 [mEh]      -0.04656032 [kcal/mol]      -0.19480839 [kJ/mol]
      Elst12,r                     -0.03083663 [mEh]      -0.01935028 [kcal/mol]      -0.08096156 [kJ/mol]

    Exchange                        0.37781624 [mEh]       0.23708327 [kcal/mol]       0.99195639 [kJ/mol]
      Exch10                        0.32179370 [mEh]       0.20192859 [kcal/mol]       0.84486924 [kJ/mol]
      Exch10(S^2)                   0.32177143 [mEh]       0.20191462 [kcal/mol]       0.84481078 [kJ/mol]
      Exch11(S^2)                   0.00375651 [mEh]       0.00235725 [kcal/mol]       0.00986272 [kJ/mol]
      Exch12(S^2)                   0.05226603 [mEh]       0.03279743 [kcal/mol]       0.13722444 [kJ/mol]

    Induction                      -0.03536189 [mEh]      -0.02218992 [kcal/mol]      -0.09284262 [kJ/mol]
      Ind20,r                      -0.03459308 [mEh]      -0.02170748 [kcal/mol]      -0.09082411 [kJ/mol]
      Ind22                        -0.00731560 [mEh]      -0.00459061 [kcal/mol]      -0.01920711 [kJ/mol]
      Exch-Ind20,r                  0.02487853 [mEh]       0.01561152 [kcal/mol]       0.06531858 [kJ/mol]
      Exch-Ind22                    0.00526121 [mEh]       0.00330146 [kcal/mol]       0.01381330 [kJ/mol]
      delta HF,r (2)               -0.02359295 [mEh]      -0.01480480 [kcal/mol]      -0.06194329 [kJ/mol]

    Dispersion                     -2.55017218 [mEh]      -1.60025720 [kcal/mol]      -6.69547614 [kJ/mol]
      Disp20                       -2.54552316 [mEh]      -1.59733990 [kcal/mol]      -6.68327013 [kJ/mol]
      Disp21                        0.30300516 [mEh]       0.19013861 [kcal/mol]       0.79553993 [kJ/mol]
      Disp22 (SDQ)                  0.06753017 [mEh]       0.04237582 [kcal/mol]       0.17730044 [kJ/mol]
      Disp22 (T)                   -0.40333088 [mEh]      -0.25309395 [kcal/mol]      -1.05894508 [kJ/mol]
      Est. Disp22 (T)              -0.42895588 [mEh]      -0.26917388 [kcal/mol]      -1.12622352 [kJ/mol]
      Exch-Disp20                   0.05377153 [mEh]       0.03374215 [kcal/mol]       0.14117714 [kJ/mol]

  Total HF                          0.21428760 [mEh]       0.13446750 [kcal/mol]       0.56261202 [kJ/mol]
  Total SAPT0                      -2.27746402 [mEh]      -1.42913025 [kcal/mol]      -5.97948096 [kJ/mol]
  Total SAPT2                      -2.25433250 [mEh]      -1.41461500 [kcal/mol]      -5.91874917 [kJ/mol]
  Total SAPT2+                     -2.31275306 [mEh]      -1.45127446 [kcal/mol]      -6.07213233 [kJ/mol]

  Special recipe for scaled SAPT0 (see Manual):
    Electrostatics sSAPT0          -0.07419860 [mEh]      -0.04656032 [kcal/mol]      -0.19480839 [kJ/mol]
    Exchange sSAPT0                 0.32179370 [mEh]       0.20192859 [kcal/mol]       0.84486924 [kJ/mol]
    Induction sSAPT0               -0.03330233 [mEh]      -0.02089753 [kcal/mol]      -0.08743526 [kJ/mol]
    Dispersion sSAPT0              -2.49174046 [mEh]      -1.56359075 [kcal/mol]      -6.54206368 [kJ/mol]
  Total sSAPT0                     -2.27744769 [mEh]      -1.42912000 [kcal/mol]      -5.97943810 [kJ/mol]
  --------------------------------------------------------------------------------------------------------

*** Psi4 exiting successfully. Buy a developer a beer!
