                               Psi4 1.4a2.dev224

  ==> Input File <==

--------------------------------------------------------------------------
#Generated by lconvert.py for sapt job

memory 50 GB

molecule  {
0 1
  C       0.956880   -0.891850    1.141950
  H       1.504570   -1.278360    0.283420
  H       1.421380   -1.314780    2.031030
  C       0.990950    0.658510    1.145500
  H       1.510590    1.023100    0.259950
  H       1.516260    1.059820    2.010540
  C      -0.479450    1.102320    1.103880
  H      -0.616270    2.064880    0.613570
  H      -0.874740    1.189070    2.118070
  C      -1.182110   -0.052800    0.393350
  H      -0.948880   -0.026830   -0.673800
  H      -2.265660   -0.033560    0.501270
  C      -0.530660   -1.274890    1.039310
  H      -0.690390   -2.197020    0.482990
  H      -0.950850   -1.415410    2.036750
--
0 1
  C      -1.090900   -0.301340    6.931730
  H      -1.424030   -0.064640    5.919140
  H      -1.895690   -0.844430    7.424710
  C       0.222700   -1.096880    6.883970
  H       0.272650   -1.754620    6.017830
  H       0.302990   -1.728240    7.768350
  C       1.352020   -0.034170    6.884560
  H       1.973290   -0.094850    5.992690
  H       2.009430   -0.184060    7.739970
  C       0.641850    1.327500    6.992430
  H       0.461980    1.735990    5.996430
  H       1.222230    2.061900    7.548400
  C      -0.700200    0.993020    7.642240
  H      -1.439870    1.785530    7.537360
  H      -0.560170    0.801380    8.708790
units angstrom
no_reorient
symmetry c1
}

set {
scf_type DF
basis aug-cc-pvtz
freeze_core True
guess SAD
}
energy('sapt2+')
--------------------------------------------------------------------------

  //              Dimer HF             //
    Molecular point group: c1
  Charge       = 0
  Multiplicity = 1
  Basis Set: AUG-CC-PVTZ
    Blend: AUG-CC-PVTZ
  Basis Set: (AUG-CC-PVTZ AUX)
    Blend: AUG-CC-PVTZ-JKFIT
  @DF-RHF Final Energy:  -390.46026263916377
    Total Energy =                       -390.4602626391638296
  //            Monomer A HF           //
    Molecular point group: c1
  Multiplicity = 1
  Basis Set: AUG-CC-PVTZ
    Blend: AUG-CC-PVTZ
  Basis Set: (AUG-CC-PVTZ AUX)
    Blend: AUG-CC-PVTZ-JKFIT
  @DF-RHF Final Energy:  -195.23013943286989
    Total Energy =                       -195.2301394328698905
  //            Monomer B HF           //
    Molecular point group: c1

    Geometry (in Angstrom), charge = 0, multiplicity = 1:

       Center              X                  Y                   Z               Mass
    ------------   -----------------  -----------------  -----------------  -----------------
      Gh(C)           0.937573595937    -0.934260103033    -2.873939267529    12.000000000000
      Gh(H)           1.485263595937    -1.320770103033    -3.732469267529     1.007825032230
      Gh(H)           1.402073595937    -1.357190103033    -1.984859267529     1.007825032230
      Gh(C)           0.971643595937     0.616099896967    -2.870389267529    12.000000000000
      Gh(H)           1.491283595937     0.980689896967    -3.755939267529     1.007825032230
      Gh(H)           1.496953595937     1.017409896967    -2.005349267529     1.007825032230
      Gh(C)          -0.498756404063     1.059909896967    -2.912009267529    12.000000000000
      Gh(H)          -0.635576404063     2.022469896967    -3.402319267529     1.007825032230
      Gh(H)          -0.894046404063     1.146659896967    -1.897819267529     1.007825032230
      Gh(C)          -1.201416404063    -0.095210103033    -3.622539267529    12.000000000000
      Gh(H)          -0.968186404063    -0.069240103033    -4.689689267529     1.007825032230
      Gh(H)          -2.284966404063    -0.075970103033    -3.514619267529     1.007825032230
      Gh(C)          -0.549966404063    -1.317300103033    -2.976579267529    12.000000000000
      Gh(H)          -0.709696404063    -2.239430103033    -3.532899267529     1.007825032230
      Gh(H)          -0.970156404063    -1.457820103033    -1.979139267529     1.007825032230
         C           -1.110206404063    -0.343750103033     2.915840732471    12.000000000000
         H           -1.443336404063    -0.107050103033     1.903250732471     1.007825032230
         H           -1.914996404063    -0.886840103033     3.408820732471     1.007825032230
         C            0.203393595937    -1.139290103033     2.868080732471    12.000000000000
         H            0.253343595937    -1.797030103033     2.001940732471     1.007825032230
         H            0.283683595937    -1.770650103033     3.752460732471     1.007825032230
         C            1.332713595937    -0.076580103033     2.868670732471    12.000000000000
         H            1.953983595937    -0.137260103033     1.976800732471     1.007825032230
         H            1.990123595937    -0.226470103033     3.724080732471     1.007825032230
         C            0.622543595937     1.285089896967     2.976540732471    12.000000000000
         H            0.442673595937     1.693579896967     1.980540732471     1.007825032230
         H            1.202923595937     2.019489896967     3.532510732471     1.007825032230
         C           -0.719506404063     0.950609896967     3.626350732471    12.000000000000
         H           -1.459176404063     1.743119896967     3.521470732471     1.007825032230
         H           -0.579476404063     0.758969896967     4.692900732471     1.007825032230

  Charge       = 0
  Multiplicity = 1
  Basis Set: AUG-CC-PVTZ
    Blend: AUG-CC-PVTZ
  Basis Set: (AUG-CC-PVTZ AUX)
    Blend: AUG-CC-PVTZ-JKFIT

    Orbital Energies [Eh]
    ---------------------

    Doubly Occupied:

       1A    -11.210422     2A    -11.210043     3A    -11.210013
       4A    -11.209401     5A    -11.209279     6A     -1.116276
       7A     -0.956685     8A     -0.955844     9A     -0.776889
      10A     -0.767196    11A     -0.649697    12A     -0.644635
      13A     -0.569793    14A     -0.567944    15A     -0.475253
      16A     -0.474343    17A     -0.463481    18A     -0.460298
      19A     -0.459143    20A     -0.448717

  @DF-RHF Final Energy:  -195.23014475327881

   => Energetics <=

    Nuclear Repulsion Energy =            188.3786762468388361
    One-Electron Energy =                -635.5469346485074311
    Two-Electron Energy =                 251.9381136483897876
    Total Energy =                       -195.2301447532788075

  Dipole Moment: [D]
     X:    -0.0118      Y:     0.0103      Z:     0.0050     Total:     0.0165

    SAPT Results
  --------------------------------------------------------------------------------------------------------
    Electrostatics                  0.00814567 [mEh]       0.00511149 [kcal/mol]       0.02138646 [kJ/mol]
      Elst10,r                      0.01080773 [mEh]       0.00678195 [kcal/mol]       0.02837568 [kJ/mol]
      Elst12,r                     -0.00266205 [mEh]      -0.00167046 [kcal/mol]      -0.00698922 [kJ/mol]

    Exchange                        0.01640177 [mEh]       0.01029227 [kcal/mol]       0.04306284 [kJ/mol]
      Exch10                        0.01321103 [mEh]       0.00829005 [kcal/mol]       0.03468555 [kJ/mol]
      Exch10(S^2)                   0.01321098 [mEh]       0.00829002 [kcal/mol]       0.03468543 [kJ/mol]
      Exch11(S^2)                  -0.00010954 [mEh]      -0.00006874 [kcal/mol]      -0.00028760 [kJ/mol]
      Exch12(S^2)                   0.00330028 [mEh]       0.00207096 [kcal/mol]       0.00866489 [kJ/mol]

    Induction                      -0.00257847 [mEh]      -0.00161801 [kcal/mol]      -0.00676976 [kJ/mol]
      Ind20,r                      -0.00197819 [mEh]      -0.00124133 [kcal/mol]      -0.00519374 [kJ/mol]
      Ind22                        -0.00017188 [mEh]      -0.00010786 [kcal/mol]      -0.00045128 [kJ/mol]
      Exch-Ind20,r                  0.00075022 [mEh]       0.00047077 [kcal/mol]       0.00196970 [kJ/mol]
      Exch-Ind22                    0.00006519 [mEh]       0.00004091 [kcal/mol]       0.00017115 [kJ/mol]
      delta HF,r (2)               -0.00124380 [mEh]      -0.00078050 [kcal/mol]      -0.00326560 [kJ/mol]

    Dispersion                     -0.82449850 [mEh]      -0.51738062 [kcal/mol]      -2.16472052 [kJ/mol]
      Disp20                       -0.83751158 [mEh]      -0.52554645 [kcal/mol]      -2.19888635 [kJ/mol]
      Disp21                        0.13192620 [mEh]       0.08278494 [kcal/mol]       0.34637218 [kJ/mol]
      Disp22 (SDQ)                  0.02215130 [mEh]       0.01390015 [kcal/mol]       0.05815822 [kJ/mol]
      Disp22 (T)                   -0.13899797 [mEh]      -0.08722254 [kcal/mol]      -0.36493912 [kJ/mol]
      Est. Disp22 (T)              -0.14399895 [mEh]      -0.09036071 [kcal/mol]      -0.37806920 [kJ/mol]
      Exch-Disp20                   0.00293454 [mEh]       0.00184145 [kcal/mol]       0.00770463 [kJ/mol]

  Total HF                          0.02154698 [mEh]       0.01352094 [kcal/mol]       0.05657160 [kJ/mol]
  Total SAPT0                      -0.81303006 [mEh]      -0.51018406 [kcal/mol]      -2.13461012 [kJ/mol]
  Total SAPT2                      -0.81260807 [mEh]      -0.50991926 [kcal/mol]      -2.13350219 [kJ/mol]
  Total SAPT2+                     -0.80252953 [mEh]      -0.50359488 [kcal/mol]      -2.10704098 [kJ/mol]

  Special recipe for scaled SAPT0 (see Manual):
    Electrostatics sSAPT0           0.01080773 [mEh]       0.00678195 [kcal/mol]       0.02837568 [kJ/mol]
    Exchange sSAPT0                 0.01321103 [mEh]       0.00829005 [kcal/mol]       0.03468555 [kJ/mol]
    Induction sSAPT0               -0.00247176 [mEh]      -0.00155105 [kcal/mol]      -0.00648961 [kJ/mol]
    Dispersion sSAPT0              -0.83457701 [mEh]      -0.52370498 [kcal/mol]      -2.19118164 [kJ/mol]
  Total sSAPT0                     -0.81303002 [mEh]      -0.51018404 [kcal/mol]      -2.13461002 [kJ/mol]
  --------------------------------------------------------------------------------------------------------

*** Psi4 exiting successfully. Buy a developer a beer!
