                               Psi4 1.4a2.dev224

  ==> Input File <==

--------------------------------------------------------------------------
#Generated by lconvert.py for sapt job

memory 60 GB

molecule  {
0 1
  C       0.956880   -0.891850    1.141950
  H       1.504570   -1.278360    0.283420
  H       1.421380   -1.314780    2.031030
  C       0.990950    0.658510    1.145500
  H       1.510590    1.023100    0.259950
  H       1.516260    1.059820    2.010540
  C      -0.479450    1.102320    1.103880
  H      -0.616270    2.064880    0.613570
  H      -0.874740    1.189070    2.118070
  C      -1.182110   -0.052800    0.393350
  H      -0.948880   -0.026830   -0.673800
  H      -2.265660   -0.033560    0.501270
  C      -0.530660   -1.274890    1.039310
  H      -0.690390   -2.197020    0.482990
  H      -0.950850   -1.415410    2.036750
--
0 1
  C      -1.070400   -0.260120    7.867910
  H      -1.403530   -0.023420    6.855330
  H      -1.875180   -0.803220    8.360900
  C       0.243210   -1.055660    7.820150
  H       0.293150   -1.713410    6.954020
  H       0.323500   -1.687020    8.704540
  C       1.372530    0.007040    7.820750
  H       1.993790   -0.053640    6.928870
  H       2.029940   -0.142840    8.676150
  C       0.662350    1.368710    7.928610
  H       0.482490    1.777200    6.932610
  H       1.242740    2.103110    8.484590
  C      -0.679700    1.034240    8.578420
  H      -1.419370    1.826750    8.473540
  H      -0.539660    0.842600    9.644970
units angstrom
no_reorient
symmetry c1
}

set {
scf_type DF
basis aug-cc-pvtz
freeze_core True
guess SAD
}
energy('sapt2+')
--------------------------------------------------------------------------

  //              Dimer HF             //
    Molecular point group: c1
  Charge       = 0
  Multiplicity = 1
  Basis Set: AUG-CC-PVTZ
    Blend: AUG-CC-PVTZ
  Basis Set: (AUG-CC-PVTZ AUX)
    Blend: AUG-CC-PVTZ-JKFIT
  @DF-RHF Final Energy:  -390.46026143020731
    Total Energy =                       -390.4602614302073107
  //            Monomer A HF           //
    Molecular point group: c1
  Multiplicity = 1
  Basis Set: AUG-CC-PVTZ
    Blend: AUG-CC-PVTZ
  Basis Set: (AUG-CC-PVTZ AUX)
    Blend: AUG-CC-PVTZ-JKFIT
  @DF-RHF Final Energy:  -195.23013241391081
    Total Energy =                       -195.2301324139108090
  //            Monomer B HF           //
    Molecular point group: c1

    Geometry (in Angstrom), charge = 0, multiplicity = 1:

       Center              X                  Y                   Z               Mass
    ------------   -----------------  -----------------  -----------------  -----------------
      Gh(C)           0.927321452122    -0.954868031126    -3.342030483251    12.000000000000
      Gh(H)           1.475011452122    -1.341378031126    -4.200560483251     1.007825032230
      Gh(H)           1.391821452122    -1.377798031126    -2.452950483251     1.007825032230
      Gh(C)           0.961391452122     0.595491968874    -3.338480483251    12.000000000000
      Gh(H)           1.481031452122     0.960081968874    -4.224030483251     1.007825032230
      Gh(H)           1.486701452122     0.996801968874    -2.473440483251     1.007825032230
      Gh(C)          -0.509008547878     1.039301968874    -3.380100483251    12.000000000000
      Gh(H)          -0.645828547878     2.001861968874    -3.870410483251     1.007825032230
      Gh(H)          -0.904298547878     1.126051968874    -2.365910483251     1.007825032230
      Gh(C)          -1.211668547878    -0.115818031126    -4.090630483251    12.000000000000
      Gh(H)          -0.978438547878    -0.089848031126    -5.157780483251     1.007825032230
      Gh(H)          -2.295218547878    -0.096578031126    -3.982710483251     1.007825032230
      Gh(C)          -0.560218547878    -1.337908031126    -3.444670483251    12.000000000000
      Gh(H)          -0.719948547878    -2.260038031126    -4.000990483251     1.007825032230
      Gh(H)          -0.980408547878    -1.478428031126    -2.447230483251     1.007825032230
         C           -1.099958547878    -0.323138031126     3.383929516749    12.000000000000
         H           -1.433088547878    -0.086438031126     2.371349516749     1.007825032230
         H           -1.904738547878    -0.866238031126     3.876919516749     1.007825032230
         C            0.213651452122    -1.118678031126     3.336169516749    12.000000000000
         H            0.263591452122    -1.776428031126     2.470039516749     1.007825032230
         H            0.293941452122    -1.750038031126     4.220559516749     1.007825032230
         C            1.342971452122    -0.055978031126     3.336769516749    12.000000000000
         H            1.964231452122    -0.116658031126     2.444889516749     1.007825032230
         H            2.000381452122    -0.205858031126     4.192169516749     1.007825032230
         C            0.632791452122     1.305691968874     3.444629516749    12.000000000000
         H            0.452931452122     1.714181968874     2.448629516749     1.007825032230
         H            1.213181452122     2.040091968874     4.000609516749     1.007825032230
         C           -0.709258547878     0.971221968874     4.094439516749    12.000000000000
         H           -1.448928547878     1.763731968874     3.989559516749     1.007825032230
         H           -0.569218547878     0.779581968874     5.160989516749     1.007825032230

  Charge       = 0
  Multiplicity = 1
  Basis Set: AUG-CC-PVTZ
    Blend: AUG-CC-PVTZ
  Basis Set: (AUG-CC-PVTZ AUX)
    Blend: AUG-CC-PVTZ-JKFIT

    Orbital Energies [Eh]
    ---------------------

    Doubly Occupied:

       1A    -11.210420     2A    -11.210042     3A    -11.210011
       4A    -11.209399     5A    -11.209277     6A     -1.116276
       7A     -0.956683     8A     -0.955845     9A     -0.776889
      10A     -0.767196    11A     -0.649697    12A     -0.644633
      13A     -0.569795    14A     -0.567945    15A     -0.475249
      16A     -0.474344    17A     -0.463481    18A     -0.460299
      19A     -0.459143    20A     -0.448717

  @DF-RHF Final Energy:  -195.23013770104384

   => Energetics <=

    Nuclear Repulsion Energy =            188.3786276958155952
    One-Electron Energy =                -635.5468491271469702
    Two-Electron Energy =                 251.9380837302875591
    Total Energy =                       -195.2301377010438443

  Dipole Moment: [D]
     X:    -0.0118      Y:     0.0103      Z:     0.0050     Total:     0.0165

    SAPT Results
  --------------------------------------------------------------------------------------------------------
    Electrostatics                  0.00785701 [mEh]       0.00493035 [kcal/mol]       0.02062857 [kJ/mol]
      Elst10,r                      0.00837103 [mEh]       0.00525290 [kcal/mol]       0.02197815 [kJ/mol]
      Elst12,r                     -0.00051403 [mEh]      -0.00032256 [kcal/mol]      -0.00134958 [kJ/mol]

    Exchange                        0.00065409 [mEh]       0.00041045 [kcal/mol]       0.00171732 [kJ/mol]
      Exch10                        0.00050510 [mEh]       0.00031696 [kcal/mol]       0.00132614 [kJ/mol]
      Exch10(S^2)                   0.00050510 [mEh]       0.00031696 [kcal/mol]       0.00132614 [kJ/mol]
      Exch11(S^2)                  -0.00001434 [mEh]      -0.00000900 [kcal/mol]      -0.00003766 [kJ/mol]
      Exch12(S^2)                   0.00016333 [mEh]       0.00010249 [kcal/mol]       0.00042884 [kJ/mol]

    Induction                      -0.00014925 [mEh]      -0.00009365 [kcal/mol]      -0.00039185 [kJ/mol]
      Ind20,r                      -0.00038601 [mEh]      -0.00024222 [kcal/mol]      -0.00101346 [kJ/mol]
      Ind22                         0.00004485 [mEh]       0.00002814 [kcal/mol]       0.00011775 [kJ/mol]
      Exch-Ind20,r                  0.00002330 [mEh]       0.00001462 [kcal/mol]       0.00006118 [kJ/mol]
      Exch-Ind22                   -0.00000271 [mEh]      -0.00000170 [kcal/mol]      -0.00000711 [kJ/mol]
      delta HF,r (2)                0.00017132 [mEh]       0.00010750 [kcal/mol]       0.00044980 [kJ/mol]

    Dispersion                     -0.32379331 [mEh]      -0.20318337 [kcal/mol]      -0.85011922 [kJ/mol]
      Disp20                       -0.33585455 [mEh]      -0.21075191 [kcal/mol]      -0.88178601 [kJ/mol]
      Disp21                        0.06130966 [mEh]       0.03847239 [kcal/mol]       0.16096849 [kJ/mol]
      Disp22 (SDQ)                  0.00891068 [mEh]       0.00559154 [kcal/mol]       0.02339499 [kJ/mol]
      Disp22 (T)                   -0.05693045 [mEh]      -0.03572439 [kcal/mol]      -0.14947087 [kJ/mol]
      Est. Disp22 (T)              -0.05830270 [mEh]      -0.03658550 [kcal/mol]      -0.15307371 [kJ/mol]
      Exch-Disp20                   0.00014360 [mEh]       0.00009011 [kcal/mol]       0.00037702 [kJ/mol]

  Total HF                          0.00868475 [mEh]       0.00544976 [kcal/mol]       0.02280180 [kJ/mol]
  Total SAPT0                      -0.32702621 [mEh]      -0.20521204 [kcal/mol]      -0.85860719 [kJ/mol]
  Total SAPT2                      -0.32734910 [mEh]      -0.20541466 [kcal/mol]      -0.85945495 [kJ/mol]
  Total SAPT2+                     -0.31543146 [mEh]      -0.19793623 [kcal/mol]      -0.82816518 [kJ/mol]

  Special recipe for scaled SAPT0 (see Manual):
    Electrostatics sSAPT0           0.00837103 [mEh]       0.00525290 [kcal/mol]       0.02197815 [kJ/mol]
    Exchange sSAPT0                 0.00050510 [mEh]       0.00031696 [kcal/mol]       0.00132614 [kJ/mol]
    Induction sSAPT0               -0.00019139 [mEh]      -0.00012010 [kcal/mol]      -0.00050249 [kJ/mol]
    Dispersion sSAPT0              -0.33571095 [mEh]      -0.21066180 [kcal/mol]      -0.88140899 [kJ/mol]
  Total sSAPT0                     -0.32702621 [mEh]      -0.20521204 [kcal/mol]      -0.85860719 [kJ/mol]
  --------------------------------------------------------------------------------------------------------

*** Psi4 exiting successfully. Buy a developer a beer!
