                               Psi4 1.4a2.dev224

  ==> Input File <==

--------------------------------------------------------------------------
#Generated by lconvert.py for sapt job

memory 25 GB

molecule  {
0 1
  C       0.765550    0.868240    0.820990
  H       1.437480    1.680010    1.065100
  C       1.237650   -0.442840    0.793890
  H       2.275760   -0.648540    1.017710
  C       0.372240   -1.488540    0.477270
  H       0.738190   -2.506080    0.457060
  C      -0.964930   -1.222970    0.186880
  H      -1.636460   -2.034560   -0.057770
  C      -1.437070    0.088410    0.213280
  H      -2.474680    0.294300   -0.011470
  C      -0.571910    1.134020    0.530810
  H      -0.937700    2.151710    0.551080
--
0 1
  C      -0.646060   -0.519140    6.654170
  H      -0.752310   -0.344190    5.581860
  H      -1.297690   -1.348410    6.927320
  C       0.823490   -0.776200    6.998300
  H       1.318720   -1.413790    6.267710
  H       0.886760   -1.276420    7.965770
  C       1.463620    0.629190    7.089250
  H       2.113890    0.821860    6.237400
  H       2.076490    0.718360    7.984980
  C       0.284580    1.628370    7.116120
  H       0.167420    2.087340    6.133840
  H       0.430170    2.429880    7.838520
  C      -0.949200    0.771280    7.411770
  H      -1.880180    1.247010    7.105860
  H      -1.014620    0.561950    8.482310
units angstrom
no_reorient
symmetry c1
}

set {
scf_type DF
basis aug-cc-pvtz
freeze_core True
guess SAD
}
energy('sapt2+')
--------------------------------------------------------------------------

  //              Dimer HF             //
    Molecular point group: c1
  Charge       = 0
  Multiplicity = 1
  Basis Set: AUG-CC-PVTZ
    Blend: AUG-CC-PVTZ
  Basis Set: (AUG-CC-PVTZ AUX)
    Blend: AUG-CC-PVTZ-JKFIT
  @DF-RHF Final Energy:  -426.01143801603291
    Total Energy =                       -426.0114380160329119
  //            Monomer A HF           //
    Molecular point group: c1
  Multiplicity = 1
  Basis Set: AUG-CC-PVTZ
    Blend: AUG-CC-PVTZ
  Basis Set: (AUG-CC-PVTZ AUX)
    Blend: AUG-CC-PVTZ-JKFIT
  @DF-RHF Final Energy:  -230.78128177045167
    Total Energy =                       -230.7812817704516419
  //            Monomer B HF           //
    Molecular point group: c1

    Geometry (in Angstrom), charge = 0, multiplicity = 1:

       Center              X                  Y                   Z               Mass
    ------------   -----------------  -----------------  -----------------  -----------------
      Gh(C)           0.725056444691     0.797507876727    -2.781607991285    12.000000000000
      Gh(H)           1.396986444691     1.609277876727    -2.537497991285     1.007825032230
      Gh(C)           1.197156444691    -0.513572123273    -2.808707991285    12.000000000000
      Gh(H)           2.235266444691    -0.719272123273    -2.584887991285     1.007825032230
      Gh(C)           0.331746444691    -1.559272123273    -3.125327991285    12.000000000000
      Gh(H)           0.697696444691    -2.576812123273    -3.145537991285     1.007825032230
      Gh(C)          -1.005423555309    -1.293702123273    -3.415717991285    12.000000000000
      Gh(H)          -1.676953555309    -2.105292123273    -3.660367991285     1.007825032230
      Gh(C)          -1.477563555309     0.017677876727    -3.389317991285    12.000000000000
      Gh(H)          -2.515173555309     0.223567876727    -3.614067991285     1.007825032230
      Gh(C)          -0.612403555309     1.063287876727    -3.071787991285    12.000000000000
      Gh(H)          -0.978193555309     2.080977876727    -3.051517991285     1.007825032230
         C           -0.686553555309    -0.589872123273     3.051572008715    12.000000000000
         H           -0.792803555309    -0.414922123273     1.979262008715     1.007825032230
         H           -1.338183555309    -1.419142123273     3.324722008715     1.007825032230
         C            0.782996444691    -0.846932123273     3.395702008715    12.000000000000
         H            1.278226444691    -1.484522123273     2.665112008715     1.007825032230
         H            0.846266444691    -1.347152123273     4.363172008715     1.007825032230
         C            1.423126444691     0.558457876727     3.486652008715    12.000000000000
         H            2.073396444691     0.751127876727     2.634802008715     1.007825032230
         H            2.035996444691     0.647627876727     4.382382008715     1.007825032230
         C            0.244086444691     1.557637876727     3.513522008715    12.000000000000
         H            0.126926444691     2.016607876727     2.531242008715     1.007825032230
         H            0.389676444691     2.359147876727     4.235922008715     1.007825032230
         C           -0.989693555309     0.700547876727     3.809172008715    12.000000000000
         H           -1.920673555309     1.176277876727     3.503262008715     1.007825032230
         H           -1.055113555309     0.491217876727     4.879712008715     1.007825032230

  Charge       = 0
  Multiplicity = 1
  Basis Set: AUG-CC-PVTZ
    Blend: AUG-CC-PVTZ
  Basis Set: (AUG-CC-PVTZ AUX)
    Blend: AUG-CC-PVTZ-JKFIT

    Orbital Energies [Eh]
    ---------------------

    Doubly Occupied:

       1A    -11.210360     2A    -11.209989     3A    -11.209955
       4A    -11.209330     5A    -11.209248     6A     -1.116410
       7A     -0.956572     8A     -0.955904     9A     -0.776803
      10A     -0.766761    11A     -0.650031    12A     -0.644287
      13A     -0.570047    14A     -0.568566    15A     -0.474837
      16A     -0.473871    17A     -0.463359    18A     -0.460876
      19A     -0.458822    20A     -0.448834

  @DF-RHF Final Energy:  -195.23008988684450

   => Energetics <=

    Nuclear Repulsion Energy =            188.4044418620520389
    One-Electron Energy =                -635.5993369305746228
    Two-Electron Energy =                 251.9648051816780594
    Total Energy =                       -195.2300898868444960

  Dipole Moment: [D]
     X:    -0.0168      Y:    -0.0030      Z:    -0.0033     Total:     0.0174

    SAPT Results
  --------------------------------------------------------------------------------------------------------
    Electrostatics                 -0.05039472 [mEh]      -0.03162316 [kcal/mol]      -0.13231131 [kJ/mol]
      Elst10,r                     -0.05718332 [mEh]      -0.03588308 [kcal/mol]      -0.15013479 [kJ/mol]
      Elst12,r                      0.00678861 [mEh]       0.00425992 [kcal/mol]       0.01782349 [kJ/mol]

    Exchange                        0.00343561 [mEh]       0.00215588 [kcal/mol]       0.00902020 [kJ/mol]
      Exch10                        0.00305776 [mEh]       0.00191878 [kcal/mol]       0.00802816 [kJ/mol]
      Exch10(S^2)                   0.00305776 [mEh]       0.00191877 [kcal/mol]       0.00802814 [kJ/mol]
      Exch11(S^2)                  -0.00000720 [mEh]      -0.00000452 [kcal/mol]      -0.00001889 [kJ/mol]
      Exch12(S^2)                   0.00038505 [mEh]       0.00024162 [kcal/mol]       0.00101094 [kJ/mol]

    Induction                      -0.01187058 [mEh]      -0.00744890 [kcal/mol]      -0.03116621 [kJ/mol]
      Ind20,r                      -0.01208027 [mEh]      -0.00758048 [kcal/mol]      -0.03171674 [kJ/mol]
      Ind22                         0.00038043 [mEh]       0.00023872 [kcal/mol]       0.00099882 [kJ/mol]
      Exch-Ind20,r                  0.00056631 [mEh]       0.00035536 [kcal/mol]       0.00148685 [kJ/mol]
      Exch-Ind22                   -0.00001783 [mEh]      -0.00001119 [kcal/mol]      -0.00004682 [kJ/mol]
      delta HF,r (2)               -0.00071922 [mEh]      -0.00045132 [kcal/mol]      -0.00188830 [kJ/mol]

    Dispersion                     -0.47428953 [mEh]      -0.29762117 [kcal/mol]      -1.24524698 [kJ/mol]
      Disp20                       -0.53132424 [mEh]      -0.33341100 [kcal/mol]      -1.39499161 [kJ/mol]
      Disp21                        0.14619801 [mEh]       0.09174064 [kcal/mol]       0.38384282 [kJ/mol]
      Disp22 (SDQ)                  0.01980432 [mEh]       0.01242740 [kcal/mol]       0.05199624 [kJ/mol]
      Disp22 (T)                   -0.10682262 [mEh]      -0.06703221 [kcal/mol]      -0.28046276 [kJ/mol]
      Est. Disp22 (T)              -0.11011070 [mEh]      -0.06909551 [kcal/mol]      -0.28909560 [kJ/mol]
      Exch-Disp20                   0.00114308 [mEh]       0.00071730 [kcal/mol]       0.00300116 [kJ/mol]

  Total HF                         -0.06635874 [mEh]      -0.04164074 [kcal/mol]      -0.17422484 [kJ/mol]
  Total SAPT0                      -0.59653990 [mEh]      -0.37433444 [kcal/mol]      -1.56621528 [kJ/mol]
  Total SAPT2                      -0.58901084 [mEh]      -0.36960988 [kcal/mol]      -1.54644776 [kJ/mol]
  Total SAPT2+                     -0.53311921 [mEh]      -0.33453736 [kcal/mol]      -1.39970429 [kJ/mol]

  Special recipe for scaled SAPT0 (see Manual):
    Electrostatics sSAPT0          -0.05718332 [mEh]      -0.03588308 [kcal/mol]      -0.15013479 [kJ/mol]
    Exchange sSAPT0                 0.00305776 [mEh]       0.00191878 [kcal/mol]       0.00802816 [kJ/mol]
    Induction sSAPT0               -0.01223318 [mEh]      -0.00767643 [kcal/mol]      -0.03211820 [kJ/mol]
    Dispersion sSAPT0              -0.53018116 [mEh]      -0.33269370 [kcal/mol]      -1.39199045 [kJ/mol]
  Total sSAPT0                     -0.59653990 [mEh]      -0.37433444 [kcal/mol]      -1.56621528 [kJ/mol]
  --------------------------------------------------------------------------------------------------------

*** Psi4 exiting successfully. Buy a developer a beer!
