                               Psi4 1.4a2.dev224

  ==> Input File <==

--------------------------------------------------------------------------
#Generated by lconvert.py for sapt job

memory 50 GB

molecule  {
0 1
  C       0.765550    0.868240    0.820990
  H       1.437480    1.680010    1.065100
  C       1.237650   -0.442840    0.793890
  H       2.275760   -0.648540    1.017710
  C       0.372240   -1.488540    0.477270
  H       0.738190   -2.506080    0.457060
  C      -0.964930   -1.222970    0.186880
  H      -1.636460   -2.034560   -0.057770
  C      -1.437070    0.088410    0.213280
  H      -2.474680    0.294300   -0.011470
  C      -0.571910    1.134020    0.530810
  H      -0.937700    2.151710    0.551080
--
0 1
  C      -0.724040   -0.657060    4.930860
  H      -0.830290   -0.482110    3.858550
  H      -1.375670   -1.486330    5.204010
  C       0.745500   -0.914130    5.274990
  H       1.240730   -1.551710    4.544400
  H       0.808780   -1.414340    6.242450
  C       1.385640    0.491270    5.365940
  H       2.035910    0.683940    4.514080
  H       1.998510    0.580440    6.261660
  C       0.206590    1.490450    5.392810
  H       0.089440    1.949420    4.410520
  H       0.352190    2.291950    6.115210
  C      -1.027180    0.633350    5.688460
  H      -1.958170    1.109090    5.382550
  H      -1.092600    0.424030    6.758990
units angstrom
no_reorient
symmetry c1
}

set {
scf_type DF
basis aug-cc-pvtz
freeze_core True
guess SAD
}
energy('sapt2+')
--------------------------------------------------------------------------

  //              Dimer HF             //
    Molecular point group: c1
  Charge       = 0
  Multiplicity = 1
  Basis Set: AUG-CC-PVTZ
    Blend: AUG-CC-PVTZ
  Basis Set: (AUG-CC-PVTZ AUX)
    Blend: AUG-CC-PVTZ-JKFIT
  @DF-RHF Final Energy:  -426.01139473585329
    Total Energy =                       -426.0113947358532869
  //            Monomer A HF           //
    Molecular point group: c1
  Multiplicity = 1
  Basis Set: AUG-CC-PVTZ
    Blend: AUG-CC-PVTZ
  Basis Set: (AUG-CC-PVTZ AUX)
    Blend: AUG-CC-PVTZ-JKFIT
  @DF-RHF Final Energy:  -230.78138213656817
    Total Energy =                       -230.7813821365681406
  //            Monomer B HF           //
    Molecular point group: c1

    Geometry (in Angstrom), charge = 0, multiplicity = 1:

       Center              X                  Y                   Z               Mass
    ------------   -----------------  -----------------  -----------------  -----------------
      Gh(C)           0.761950653763     0.862759719958    -1.966307154332    12.000000000000
      Gh(H)           1.433880653763     1.674529719958    -1.722197154332     1.007825032230
      Gh(C)           1.234050653763    -0.448320280042    -1.993407154332    12.000000000000
      Gh(H)           2.272160653763    -0.654020280042    -1.769587154332     1.007825032230
      Gh(C)           0.368640653763    -1.494020280042    -2.310027154332    12.000000000000
      Gh(H)           0.734590653763    -2.511560280042    -2.330237154332     1.007825032230
      Gh(C)          -0.968529346237    -1.228450280042    -2.600417154332    12.000000000000
      Gh(H)          -1.640059346237    -2.040040280042    -2.845067154332     1.007825032230
      Gh(C)          -1.440669346237     0.082929719958    -2.574017154332    12.000000000000
      Gh(H)          -2.478279346237     0.288819719958    -2.798767154332     1.007825032230
      Gh(C)          -0.575509346237     1.128539719958    -2.256487154332    12.000000000000
      Gh(H)          -0.941299346237     2.146229719958    -2.236217154332     1.007825032230
         C           -0.727639346237    -0.662540280042     2.143562845668    12.000000000000
         H           -0.833889346237    -0.487590280042     1.071252845668     1.007825032230
         H           -1.379269346237    -1.491810280042     2.416712845668     1.007825032230
         C            0.741900653763    -0.919610280042     2.487692845668    12.000000000000
         H            1.237130653763    -1.557190280042     1.757102845668     1.007825032230
         H            0.805180653763    -1.419820280042     3.455152845668     1.007825032230
         C            1.382040653763     0.485789719958     2.578642845668    12.000000000000
         H            2.032310653763     0.678459719958     1.726782845668     1.007825032230
         H            1.994910653763     0.574959719958     3.474362845668     1.007825032230
         C            0.202990653763     1.484969719958     2.605512845668    12.000000000000
         H            0.085840653763     1.943939719958     1.623222845668     1.007825032230
         H            0.348590653763     2.286469719958     3.327912845668     1.007825032230
         C           -1.030779346237     0.627869719958     2.901162845668    12.000000000000
         H           -1.961769346237     1.103609719958     2.595252845668     1.007825032230
         H           -1.096199346237     0.418549719958     3.971692845668     1.007825032230

  Charge       = 0
  Multiplicity = 1
  Basis Set: AUG-CC-PVTZ
    Blend: AUG-CC-PVTZ
  Basis Set: (AUG-CC-PVTZ AUX)
    Blend: AUG-CC-PVTZ-JKFIT

    Orbital Energies [Eh]
    ---------------------

    Doubly Occupied:

       1A    -11.210364     2A    -11.209992     3A    -11.209959
       4A    -11.209334     5A    -11.209253     6A     -1.116411
       7A     -0.956573     8A     -0.955904     9A     -0.776804
      10A     -0.766762    11A     -0.650032    12A     -0.644288
      13A     -0.570048    14A     -0.568568    15A     -0.474838
      16A     -0.473869    17A     -0.463354    18A     -0.460878
      19A     -0.458825    20A     -0.448836

  @DF-RHF Final Energy:  -195.23010741124477

   => Energetics <=

    Nuclear Repulsion Energy =            188.4045079995886169
    One-Electron Energy =                -635.5994503426513802
    Two-Electron Energy =                 251.9648349318179612
    Total Energy =                       -195.2301074112447736

  Dipole Moment: [D]
     X:    -0.0168      Y:    -0.0030      Z:    -0.0032     Total:     0.0174

    SAPT Results
  --------------------------------------------------------------------------------------------------------
    Electrostatics                 -0.41808528 [mEh]      -0.26235247 [kcal/mol]      -1.09768275 [kJ/mol]
      Elst10,r                     -0.41788302 [mEh]      -0.26222556 [kcal/mol]      -1.09715172 [kJ/mol]
      Elst12,r                     -0.00020226 [mEh]      -0.00012692 [kcal/mol]      -0.00053102 [kJ/mol]

    Exchange                        0.71207853 [mEh]       0.44683602 [kcal/mol]       1.86956193 [kJ/mol]
      Exch10                        0.65458129 [mEh]       0.41075596 [kcal/mol]       1.71860293 [kJ/mol]
      Exch10(S^2)                   0.65445068 [mEh]       0.41067400 [kcal/mol]       1.71826002 [kJ/mol]
      Exch11(S^2)                   0.01939221 [mEh]       0.01216879 [kcal/mol]       0.05091423 [kJ/mol]
      Exch12(S^2)                   0.03810504 [mEh]       0.02391127 [kcal/mol]       0.10004476 [kJ/mol]

    Induction                      -0.14365929 [mEh]      -0.09014757 [kcal/mol]      -0.37717742 [kJ/mol]
      Ind20,r                      -0.22568205 [mEh]      -0.14161763 [kcal/mol]      -0.59252815 [kJ/mol]
      Ind22                        -0.00461396 [mEh]      -0.00289530 [kcal/mol]      -0.01211394 [kJ/mol]
      Exch-Ind20,r                  0.13896004 [mEh]       0.08719874 [kcal/mol]       0.36483953 [kJ/mol]
      Exch-Ind22                    0.00284097 [mEh]       0.00178273 [kcal/mol]       0.00745896 [kJ/mol]
      delta HF,r (2)               -0.05516429 [mEh]      -0.03461611 [kcal/mol]      -0.14483382 [kJ/mol]

    Dispersion                     -3.37736083 [mEh]      -2.11932591 [kcal/mol]      -8.86725962 [kJ/mol]
      Disp20                       -3.77798548 [mEh]      -2.37072168 [kcal/mol]      -9.91909951 [kJ/mol]
      Disp21                        0.83710183 [mEh]       0.52528933 [kcal/mol]       2.19781056 [kJ/mol]
      Disp22 (SDQ)                  0.17596948 [mEh]       0.11042251 [kcal/mol]       0.46200779 [kJ/mol]
      Disp22 (T)                   -0.70990000 [mEh]      -0.44546897 [kcal/mol]      -1.86384219 [kJ/mol]
      Est. Disp22 (T)              -0.75958386 [mEh]      -0.47664607 [kcal/mol]      -1.99428716 [kJ/mol]
      Exch-Disp20                   0.14713721 [mEh]       0.09232999 [kcal/mol]       0.38630869 [kJ/mol]

  Total HF                          0.09481196 [mEh]       0.05949540 [kcal/mol]       0.24892877 [kJ/mol]
  Total SAPT0                      -3.53603631 [mEh]      -2.21889628 [kcal/mol]      -9.28386205 [kJ/mol]
  Total SAPT2                      -3.48051431 [mEh]      -2.18405570 [kcal/mol]      -9.13808906 [kJ/mol]
  Total SAPT2+                     -3.22702686 [mEh]      -2.02498993 [kcal/mol]      -8.47255787 [kJ/mol]

  Special recipe for scaled SAPT0 (see Manual):
    Electrostatics sSAPT0          -0.41788302 [mEh]      -0.26222556 [kcal/mol]      -1.09715172 [kJ/mol]
    Exchange sSAPT0                 0.65458129 [mEh]       0.41075596 [kcal/mol]       1.71860293 [kJ/mol]
    Induction sSAPT0               -0.14180309 [mEh]      -0.08898278 [kcal/mol]      -0.37230397 [kJ/mol]
    Dispersion sSAPT0              -3.63076016 [mEh]      -2.27833640 [kcal/mol]      -9.53255949 [kJ/mol]
  Total sSAPT0                     -3.53586499 [mEh]      -2.21878878 [kcal/mol]      -9.28341225 [kJ/mol]
  --------------------------------------------------------------------------------------------------------

*** Psi4 exiting successfully. Buy a developer a beer!
