                               Psi4 1.4a2.dev224

  ==> Input File <==

--------------------------------------------------------------------------
#Generated by lconvert.py for sapt job

memory 25 GB

molecule  {
0 1
  C       0.765550    0.868240    0.820990
  H       1.437480    1.680010    1.065100
  C       1.237650   -0.442840    0.793890
  H       2.275760   -0.648540    1.017710
  C       0.372240   -1.488540    0.477270
  H       0.738190   -2.506080    0.457060
  C      -0.964930   -1.222970    0.186880
  H      -1.636460   -2.034560   -0.057770
  C      -1.437070    0.088410    0.213280
  H      -2.474680    0.294300   -0.011470
  C      -0.571910    1.134020    0.530810
  H      -0.937700    2.151710    0.551080
--
0 1
  C      -0.685050   -0.588100    5.792510
  H      -0.791300   -0.413150    4.720200
  H      -1.336680   -1.417370    6.065660
  C       0.784490   -0.845170    6.136640
  H       1.279730   -1.482750    5.406060
  H       0.847770   -1.345380    7.104110
  C       1.424630    0.560230    6.227590
  H       2.074900    0.752900    5.375740
  H       2.037500    0.649400    7.123320
  C       0.245580    1.559410    6.254470
  H       0.128430    2.018380    5.272180
  H       0.391180    2.360910    6.976870
  C      -0.988190    0.702310    6.550120
  H      -1.919180    1.178050    6.244200
  H      -1.053610    0.492990    7.620650
units angstrom
no_reorient
symmetry c1
}

set {
scf_type DF
basis aug-cc-pvtz
freeze_core True
guess SAD
}
energy('sapt2+')
--------------------------------------------------------------------------

  //              Dimer HF             //
    Molecular point group: c1
  Charge       = 0
  Multiplicity = 1
  Basis Set: AUG-CC-PVTZ
    Blend: AUG-CC-PVTZ
  Basis Set: (AUG-CC-PVTZ AUX)
    Blend: AUG-CC-PVTZ-JKFIT
  @DF-RHF Final Energy:  -426.01150947939777
    Total Energy =                       -426.0115094793977732
  //            Monomer A HF           //
    Molecular point group: c1
  Multiplicity = 1
  Basis Set: AUG-CC-PVTZ
    Blend: AUG-CC-PVTZ
  Basis Set: (AUG-CC-PVTZ AUX)
    Blend: AUG-CC-PVTZ-JKFIT
  @DF-RHF Final Energy:  -230.78130912009783
    Total Energy =                       -230.7813091200978306
  //            Monomer B HF           //
    Molecular point group: c1

    Geometry (in Angstrom), charge = 0, multiplicity = 1:

       Center              X                  Y                   Z               Mass
    ------------   -----------------  -----------------  -----------------  -----------------
      Gh(C)           0.743504359352     0.830134642487    -2.373957133726    12.000000000000
      Gh(H)           1.415434359352     1.641904642487    -2.129847133726     1.007825032230
      Gh(C)           1.215604359352    -0.480945357513    -2.401057133726    12.000000000000
      Gh(H)           2.253714359352    -0.686645357513    -2.177237133726     1.007825032230
      Gh(C)           0.350194359352    -1.526645357513    -2.717677133726    12.000000000000
      Gh(H)           0.716144359352    -2.544185357513    -2.737887133726     1.007825032230
      Gh(C)          -0.986975640648    -1.261075357513    -3.008067133726    12.000000000000
      Gh(H)          -1.658505640648    -2.072665357513    -3.252717133726     1.007825032230
      Gh(C)          -1.459115640648     0.050304642487    -2.981667133726    12.000000000000
      Gh(H)          -2.496725640648     0.256194642487    -3.206417133726     1.007825032230
      Gh(C)          -0.593955640648     1.095914642487    -2.664137133726    12.000000000000
      Gh(H)          -0.959745640648     2.113604642487    -2.643867133726     1.007825032230
         C           -0.707095640648    -0.626205357513     2.597562866274    12.000000000000
         H           -0.813345640648    -0.451255357513     1.525252866274     1.007825032230
         H           -1.358725640648    -1.455475357513     2.870712866274     1.007825032230
         C            0.762444359352    -0.883275357513     2.941692866274    12.000000000000
         H            1.257684359352    -1.520855357513     2.211112866274     1.007825032230
         H            0.825724359352    -1.383485357513     3.909162866274     1.007825032230
         C            1.402584359352     0.522124642487     3.032642866274    12.000000000000
         H            2.052854359352     0.714794642487     2.180792866274     1.007825032230
         H            2.015454359352     0.611294642487     3.928372866274     1.007825032230
         C            0.223534359352     1.521304642487     3.059522866274    12.000000000000
         H            0.106384359352     1.980274642487     2.077232866274     1.007825032230
         H            0.369134359352     2.322804642487     3.781922866274     1.007825032230
         C           -1.010235640648     0.664204642487     3.355172866274    12.000000000000
         H           -1.941225640648     1.139944642487     3.049252866274     1.007825032230
         H           -1.075655640648     0.454884642487     4.425702866274     1.007825032230

  Charge       = 0
  Multiplicity = 1
  Basis Set: AUG-CC-PVTZ
    Blend: AUG-CC-PVTZ
  Basis Set: (AUG-CC-PVTZ AUX)
    Blend: AUG-CC-PVTZ-JKFIT

    Orbital Energies [Eh]
    ---------------------

    Doubly Occupied:

       1A    -11.210361     2A    -11.209990     3A    -11.209956
       4A    -11.209332     5A    -11.209250     6A     -1.116409
       7A     -0.956573     8A     -0.955903     9A     -0.776803
      10A     -0.766761    11A     -0.650031    12A     -0.644287
      13A     -0.570047    14A     -0.568568    15A     -0.474838
      16A     -0.473868    17A     -0.463354    18A     -0.460879
      19A     -0.458825    20A     -0.448834

  @DF-RHF Final Energy:  -195.23009487100140

   => Energetics <=

    Nuclear Repulsion Energy =            188.4043834212452566
    One-Electron Energy =                -635.5992157012835833
    Two-Electron Energy =                 251.9647374090369283
    Total Energy =                       -195.2300948710013984

  Dipole Moment: [D]
     X:    -0.0168      Y:    -0.0030      Z:    -0.0033     Total:     0.0174

    SAPT Results
  --------------------------------------------------------------------------------------------------------
    Electrostatics                 -0.10541859 [mEh]      -0.06615116 [kcal/mol]      -0.27677646 [kJ/mol]
      Elst10,r                     -0.11595015 [mEh]      -0.07275982 [kcal/mol]      -0.30442708 [kJ/mol]
      Elst12,r                      0.01053156 [mEh]       0.00660866 [kcal/mol]       0.02765062 [kJ/mol]

    Exchange                        0.05016775 [mEh]       0.03148074 [kcal/mol]       0.13171541 [kJ/mol]
      Exch10                        0.04497745 [mEh]       0.02822378 [kcal/mol]       0.11808829 [kJ/mol]
      Exch10(S^2)                   0.04497663 [mEh]       0.02822326 [kcal/mol]       0.11808612 [kJ/mol]
      Exch11(S^2)                   0.00062356 [mEh]       0.00039129 [kcal/mol]       0.00163716 [kJ/mol]
      Exch12(S^2)                   0.00456674 [mEh]       0.00286567 [kcal/mol]       0.01198997 [kJ/mol]

    Induction                      -0.03401126 [mEh]      -0.02134238 [kcal/mol]      -0.08929654 [kJ/mol]
      Ind20,r                      -0.03937060 [mEh]      -0.02470543 [kcal/mol]      -0.10336750 [kJ/mol]
      Ind22                         0.00064455 [mEh]       0.00040446 [kcal/mol]       0.00169226 [kJ/mol]
      Exch-Ind20,r                  0.00856382 [mEh]       0.00537388 [kcal/mol]       0.02248429 [kJ/mol]
      Exch-Ind22                   -0.00014020 [mEh]      -0.00008798 [kcal/mol]      -0.00036810 [kJ/mol]
      delta HF,r (2)               -0.00370882 [mEh]      -0.00232732 [kcal/mol]      -0.00973749 [kJ/mol]

    Dispersion                     -1.17329061 [mEh]      -0.73625098 [kcal/mol]      -3.08047408 [kJ/mol]
      Disp20                       -1.30212060 [mEh]      -0.81709301 [kcal/mol]      -3.41871716 [kJ/mol]
      Disp21                        0.32830987 [mEh]       0.20601756 [kcal/mol]       0.86197745 [kJ/mol]
      Disp22 (SDQ)                  0.05431194 [mEh]       0.03408126 [kcal/mol]       0.14259597 [kJ/mol]
      Disp22 (T)                   -0.25509951 [mEh]      -0.16007736 [kcal/mol]      -0.66976367 [kJ/mol]
      Est. Disp22 (T)              -0.26722179 [mEh]      -0.16768420 [kcal/mol]      -0.70159071 [kJ/mol]
      Exch-Disp20                   0.01342996 [mEh]       0.00842743 [kcal/mol]       0.03526035 [kJ/mol]

  Total HF                         -0.10548830 [mEh]      -0.06619491 [kcal/mol]      -0.27695949 [kJ/mol]
  Total SAPT0                      -1.39417894 [mEh]      -0.87486049 [kcal/mol]      -3.66041629 [kJ/mol]
  Total SAPT2                      -1.37795273 [mEh]      -0.86467839 [kcal/mol]      -3.61781439 [kJ/mol]
  Total SAPT2+                     -1.26255270 [mEh]      -0.79226378 [kcal/mol]      -3.31483167 [kJ/mol]

  Special recipe for scaled SAPT0 (see Manual):
    Electrostatics sSAPT0          -0.11595015 [mEh]      -0.07275982 [kcal/mol]      -0.30442708 [kJ/mol]
    Exchange sSAPT0                 0.04497745 [mEh]       0.02822378 [kcal/mol]       0.11808829 [kJ/mol]
    Induction sSAPT0               -0.03451513 [mEh]      -0.02165857 [kcal/mol]      -0.09061946 [kJ/mol]
    Dispersion sSAPT0              -1.28868990 [mEh]      -0.80866512 [kcal/mol]      -3.38345486 [kJ/mol]
  Total sSAPT0                     -1.39417772 [mEh]      -0.87485973 [kcal/mol]      -3.66041311 [kJ/mol]
  --------------------------------------------------------------------------------------------------------

*** Psi4 exiting successfully. Buy a developer a beer!
