                               Psi4 1.4a2.dev224

  ==> Input File <==

--------------------------------------------------------------------------
#Generated by lconvert.py for sapt job

memory 25 GB

molecule  {
0 1
  C       0.311950    0.561020    0.496700
  H       0.742140    1.553370    0.481570
  C       1.142180   -0.558070    0.536060
  H       2.216510   -0.434250    0.552350
  C       0.587800   -1.836690    0.554140
  H       1.231910   -2.704840    0.585220
  C      -0.796660   -1.996380    0.532960
  H      -1.226770   -2.988440    0.548640
  C      -1.626890   -0.877470    0.494170
  H      -2.701120   -1.001350    0.479810
  C      -1.072660    0.401210    0.475970
  H      -1.716970    1.269400    0.445920
--
0 1
  C       0.081390    0.434960    7.041180
  C       1.527640    0.613750    6.586220
  H       1.943500    1.547030    6.969650
  H       2.151040   -0.206860    6.945080
  H       1.588250    0.633140    5.497290
  C       0.027000    0.403590    8.566050
  H      -0.998790    0.276170    8.915140
  H       0.622400   -0.422090    8.958600
  H       0.415290    1.331480    8.988960
  C      -0.467990   -0.874530    6.480890
  H      -1.502860   -1.024800    6.793560
  H       0.118470   -1.723500    6.836700
  H      -0.439210   -0.874980    5.390580
  C      -0.759980    1.599540    6.524980
  H      -0.738440    1.635570    5.434980
  H      -1.799770    1.495770    6.839460
  H      -0.384330    2.550230    6.907090
units angstrom
no_reorient
symmetry c1
}

set {
scf_type DF
basis aug-cc-pvtz
freeze_core True
guess SAD
}
energy('sapt2+')
--------------------------------------------------------------------------

  //              Dimer HF             //
    Molecular point group: c1
  Charge       = 0
  Multiplicity = 1
  Basis Set: AUG-CC-PVTZ
    Blend: AUG-CC-PVTZ
  Basis Set: (AUG-CC-PVTZ AUX)
    Blend: AUG-CC-PVTZ-JKFIT
  @DF-RHF Final Energy:  -427.18591792878908
    Total Energy =                       -427.1859179287890811
  //            Monomer A HF           //
    Molecular point group: c1
  Multiplicity = 1
  Basis Set: AUG-CC-PVTZ
    Blend: AUG-CC-PVTZ
  Basis Set: (AUG-CC-PVTZ AUX)
    Blend: AUG-CC-PVTZ-JKFIT
  @DF-RHF Final Energy:  -230.78129869536502
    Total Energy =                       -230.7812986953650238
  //            Monomer B HF           //
    Molecular point group: c1

    Geometry (in Angstrom), charge = 0, multiplicity = 1:

       Center              X                  Y                   Z               Mass
    ------------   -----------------  -----------------  -----------------  -----------------
      Gh(C)           0.398782705315     0.725070362771    -3.151392312325    12.000000000000
      Gh(H)           0.828972705315     1.717420362771    -3.166522312325     1.007825032230
      Gh(C)           1.229012705315    -0.394019637229    -3.112032312325    12.000000000000
      Gh(H)           2.303342705315    -0.270199637229    -3.095742312325     1.007825032230
      Gh(C)           0.674632705315    -1.672639637229    -3.093952312325    12.000000000000
      Gh(H)           1.318742705315    -2.540789637229    -3.062872312325     1.007825032230
      Gh(C)          -0.709827294685    -1.832329637229    -3.115132312325    12.000000000000
      Gh(H)          -1.139937294685    -2.824389637229    -3.099452312325     1.007825032230
      Gh(C)          -1.540057294685    -0.713419637229    -3.153922312325    12.000000000000
      Gh(H)          -2.614287294685    -0.837299637229    -3.168282312325     1.007825032230
      Gh(C)          -0.985827294685     0.565260362771    -3.172122312325    12.000000000000
      Gh(H)          -1.630137294685     1.433450362771    -3.202172312325     1.007825032230
         C            0.168222705315     0.599010362771     3.393087687675    12.000000000000
         C            1.614472705315     0.777800362771     2.938127687675    12.000000000000
         H            2.030332705315     1.711080362771     3.321557687675     1.007825032230
         H            2.237872705315    -0.042809637229     3.296987687675     1.007825032230
         H            1.675082705315     0.797190362771     1.849197687675     1.007825032230
         C            0.113832705315     0.567640362771     4.917957687675    12.000000000000
         H           -0.911957294685     0.440220362771     5.267047687675     1.007825032230
         H            0.709232705315    -0.258039637229     5.310507687675     1.007825032230
         H            0.502122705315     1.495530362771     5.340867687675     1.007825032230
         C           -0.381157294685    -0.710479637229     2.832797687675    12.000000000000
         H           -1.416027294685    -0.860749637229     3.145467687675     1.007825032230
         H            0.205302705315    -1.559449637229     3.188607687675     1.007825032230
         H           -0.352377294685    -0.710929637229     1.742487687675     1.007825032230
         C           -0.673147294685     1.763590362771     2.876887687675    12.000000000000
         H           -0.651607294685     1.799620362771     1.786887687675     1.007825032230
         H           -1.712937294685     1.659820362771     3.191367687675     1.007825032230
         H           -0.297497294685     2.714280362771     3.258997687675     1.007825032230

  Charge       = 0
  Multiplicity = 1
  Basis Set: AUG-CC-PVTZ
    Blend: AUG-CC-PVTZ
  Basis Set: (AUG-CC-PVTZ AUX)
    Blend: AUG-CC-PVTZ-JKFIT

    Orbital Energies [Eh]
    ---------------------

    Doubly Occupied:

       1A    -11.226699     2A    -11.205747     3A    -11.205660
       4A    -11.205598     5A    -11.205575     6A     -1.106574
       7A     -0.928896     8A     -0.928567     9A     -0.928532
      10A     -0.729633    11A     -0.612244    12A     -0.611738
      13A     -0.611484    14A     -0.553113    15A     -0.552770
      16A     -0.509549    17A     -0.509396    18A     -0.508927
      19A     -0.452940    20A     -0.452015    21A     -0.451952

  @DF-RHF Final Energy:  -196.40450364738078

   => Energetics <=

    Nuclear Repulsion Energy =            199.3732656583692631
    One-Electron Energy =                -658.5603477028931820
    Two-Electron Energy =                 262.7825783971430837
    Total Energy =                       -196.4045036473808068

  Dipole Moment: [D]
     X:    -0.0010      Y:    -0.0024      Z:     0.0013     Total:     0.0029

    SAPT Results
  --------------------------------------------------------------------------------------------------------
    Electrostatics                 -0.09395605 [mEh]      -0.05895831 [kcal/mol]      -0.24668157 [kJ/mol]
      Elst10,r                     -0.10493879 [mEh]      -0.06585008 [kcal/mol]      -0.27551675 [kJ/mol]
      Elst12,r                      0.01098274 [mEh]       0.00689177 [kcal/mol]       0.02883518 [kJ/mol]

    Exchange                        0.00871201 [mEh]       0.00546687 [kcal/mol]       0.02287338 [kJ/mol]
      Exch10                        0.00765274 [mEh]       0.00480217 [kcal/mol]       0.02009227 [kJ/mol]
      Exch10(S^2)                   0.00765276 [mEh]       0.00480218 [kcal/mol]       0.02009232 [kJ/mol]
      Exch11(S^2)                   0.00001906 [mEh]       0.00001196 [kcal/mol]       0.00005004 [kJ/mol]
      Exch12(S^2)                   0.00104021 [mEh]       0.00065274 [kcal/mol]       0.00273107 [kJ/mol]

    Induction                      -0.01798391 [mEh]      -0.01128507 [kcal/mol]      -0.04721674 [kJ/mol]
      Ind20,r                      -0.01794592 [mEh]      -0.01126123 [kcal/mol]      -0.04711700 [kJ/mol]
      Ind22                         0.00033244 [mEh]       0.00020861 [kcal/mol]       0.00087283 [kJ/mol]
      Exch-Ind20,r                  0.00088256 [mEh]       0.00055381 [kcal/mol]       0.00231716 [kJ/mol]
      Exch-Ind22                   -0.00001635 [mEh]      -0.00001026 [kcal/mol]      -0.00004292 [kJ/mol]
      delta HF,r (2)               -0.00123664 [mEh]      -0.00077600 [kcal/mol]      -0.00324680 [kJ/mol]

    Dispersion                     -0.59721686 [mEh]      -0.37475924 [kcal/mol]      -1.56799264 [kJ/mol]
      Disp20                       -0.65935664 [mEh]      -0.41375254 [kcal/mol]      -1.73114061 [kJ/mol]
      Disp21                        0.16042544 [mEh]       0.10066848 [kcal/mol]       0.42119693 [kJ/mol]
      Disp22 (SDQ)                  0.03441608 [mEh]       0.02159641 [kcal/mol]       0.09035940 [kJ/mol]
      Disp22 (T)                   -0.13029755 [mEh]      -0.08176294 [kcal/mol]      -0.34209616 [kJ/mol]
      Est. Disp22 (T)              -0.13522238 [mEh]      -0.08485332 [kcal/mol]      -0.35502631 [kJ/mol]
      Exch-Disp20                   0.00252064 [mEh]       0.00158173 [kcal/mol]       0.00661795 [kJ/mol]

  Total HF                         -0.11558604 [mEh]      -0.07253134 [kcal/mol]      -0.30347111 [kJ/mol]
  Total SAPT0                      -0.77242204 [mEh]      -0.48470215 [kcal/mol]      -2.02799378 [kJ/mol]
  Total SAPT2                      -0.76006393 [mEh]      -0.47694732 [kcal/mol]      -1.99554758 [kJ/mol]
  Total SAPT2+                     -0.70044480 [mEh]      -0.43953575 [kcal/mol]      -1.83901756 [kJ/mol]

  Special recipe for scaled SAPT0 (see Manual):
    Electrostatics sSAPT0          -0.10493879 [mEh]      -0.06585008 [kcal/mol]      -0.27551675 [kJ/mol]
    Exchange sSAPT0                 0.00765274 [mEh]       0.00480217 [kcal/mol]       0.02009227 [kJ/mol]
    Induction sSAPT0               -0.01830000 [mEh]      -0.01148342 [kcal/mol]      -0.04804664 [kJ/mol]
    Dispersion sSAPT0              -0.65683599 [mEh]      -0.41217081 [kcal/mol]      -1.72452266 [kJ/mol]
  Total sSAPT0                     -0.77242204 [mEh]      -0.48470215 [kcal/mol]      -2.02799378 [kJ/mol]
  --------------------------------------------------------------------------------------------------------

*** Psi4 exiting successfully. Buy a developer a beer!
