                               Psi4 1.4a2.dev224

  ==> Input File <==

--------------------------------------------------------------------------
#Generated by lconvert.py for sapt job

memory 25 GB

molecule  {
0 1
  C       0.311950    0.561020    0.496700
  H       0.742140    1.553370    0.481570
  C       1.142180   -0.558070    0.536060
  H       2.216510   -0.434250    0.552350
  C       0.587800   -1.836690    0.554140
  H       1.231910   -2.704840    0.585220
  C      -0.796660   -1.996380    0.532960
  H      -1.226770   -2.988440    0.548640
  C      -1.626890   -0.877470    0.494170
  H      -2.701120   -1.001350    0.479810
  C      -1.072660    0.401210    0.475970
  H      -1.716970    1.269400    0.445920
--
0 1
  C       0.035510    0.398310    8.177710
  C       1.481760    0.577100    7.722750
  H       1.897610    1.510370    8.106170
  H       2.105160   -0.243520    8.081600
  H       1.542370    0.596490    6.633810
  C      -0.018880    0.366940    9.702570
  H      -1.044670    0.239520   10.051660
  H       0.576520   -0.458750   10.095130
  H       0.369410    1.294820   10.125480
  C      -0.513870   -0.911180    7.617410
  H      -1.548750   -1.061460    7.930080
  H       0.072580   -1.760160    7.973220
  H      -0.485090   -0.911640    6.527100
  C      -0.805860    1.562880    7.661500
  H      -0.784320    1.598910    6.571500
  H      -1.845650    1.459110    7.975980
  H      -0.430210    2.513570    8.043610
units angstrom
no_reorient
symmetry c1
}

set {
scf_type DF
basis aug-cc-pvtz
freeze_core True
guess SAD
}
energy('sapt2+')
--------------------------------------------------------------------------

  //              Dimer HF             //
    Molecular point group: c1
  Charge       = 0
  Multiplicity = 1
  Basis Set: AUG-CC-PVTZ
    Blend: AUG-CC-PVTZ
  Basis Set: (AUG-CC-PVTZ AUX)
    Blend: AUG-CC-PVTZ-JKFIT
  @DF-RHF Final Energy:  -427.18582798430475
    Total Energy =                       -427.1858279843047512
  //            Monomer A HF           //
    Molecular point group: c1
  Multiplicity = 1
  Basis Set: AUG-CC-PVTZ
    Blend: AUG-CC-PVTZ
  Basis Set: (AUG-CC-PVTZ AUX)
    Blend: AUG-CC-PVTZ-JKFIT
  @DF-RHF Final Energy:  -230.78127309936957
    Total Energy =                       -230.7812730993695709
  //            Monomer B HF           //
    Molecular point group: c1

    Geometry (in Angstrom), charge = 0, multiplicity = 1:

       Center              X                  Y                   Z               Mass
    ------------   -----------------  -----------------  -----------------  -----------------
      Gh(C)           0.420813341026     0.742670251285    -3.697122601112    12.000000000000
      Gh(H)           0.851003341026     1.735020251285    -3.712252601112     1.007825032230
      Gh(C)           1.251043341026    -0.376419748715    -3.657762601112    12.000000000000
      Gh(H)           2.325373341026    -0.252599748715    -3.641472601112     1.007825032230
      Gh(C)           0.696663341026    -1.655039748715    -3.639682601112    12.000000000000
      Gh(H)           1.340773341026    -2.523189748715    -3.608602601112     1.007825032230
      Gh(C)          -0.687796658974    -1.814729748715    -3.660862601112    12.000000000000
      Gh(H)          -1.117906658974    -2.806789748715    -3.645182601112     1.007825032230
      Gh(C)          -1.518026658974    -0.695819748715    -3.699652601112    12.000000000000
      Gh(H)          -2.592256658974    -0.819699748715    -3.714012601112     1.007825032230
      Gh(C)          -0.963796658974     0.582860251285    -3.717852601112    12.000000000000
      Gh(H)          -1.608106658974     1.451050251285    -3.747902601112     1.007825032230
         C            0.144373341026     0.579960251285     3.983887398888    12.000000000000
         C            1.590623341026     0.758750251285     3.528927398888    12.000000000000
         H            2.006473341026     1.692020251285     3.912347398888     1.007825032230
         H            2.214023341026    -0.061869748715     3.887777398888     1.007825032230
         H            1.651233341026     0.778140251285     2.439987398888     1.007825032230
         C            0.089983341026     0.548590251285     5.508747398888    12.000000000000
         H           -0.935806658974     0.421170251285     5.857837398888     1.007825032230
         H            0.685383341026    -0.277099748715     5.901307398888     1.007825032230
         H            0.478273341026     1.476470251285     5.931657398888     1.007825032230
         C           -0.405006658974    -0.729529748715     3.423587398888    12.000000000000
         H           -1.439886658974    -0.879809748715     3.736257398888     1.007825032230
         H            0.181443341026    -1.578509748715     3.779397398888     1.007825032230
         H           -0.376226658974    -0.729989748715     2.333277398888     1.007825032230
         C           -0.696996658974     1.744530251285     3.467677398888    12.000000000000
         H           -0.675456658974     1.780560251285     2.377677398888     1.007825032230
         H           -1.736786658974     1.640760251285     3.782157398888     1.007825032230
         H           -0.321346658974     2.695220251285     3.849787398888     1.007825032230

  Charge       = 0
  Multiplicity = 1
  Basis Set: AUG-CC-PVTZ
    Blend: AUG-CC-PVTZ
  Basis Set: (AUG-CC-PVTZ AUX)
    Blend: AUG-CC-PVTZ-JKFIT

    Orbital Energies [Eh]
    ---------------------

    Doubly Occupied:

       1A    -11.226700     2A    -11.205745     3A    -11.205657
       4A    -11.205598     5A    -11.205575     6A     -1.106575
       7A     -0.928896     8A     -0.928567     9A     -0.928530
      10A     -0.729634    11A     -0.612243    12A     -0.611740
      13A     -0.611482    14A     -0.553112    15A     -0.552770
      16A     -0.509548    17A     -0.509393    18A     -0.508927
      19A     -0.452943    20A     -0.452015    21A     -0.451952

  @DF-RHF Final Energy:  -196.40449997686480

   => Energetics <=

    Nuclear Repulsion Energy =            199.3734015947065643
    One-Electron Energy =                -658.5605997931559159
    Two-Electron Energy =                 262.7826982215844964
    Total Energy =                       -196.4044999768648267

  Dipole Moment: [D]
     X:    -0.0010      Y:    -0.0024      Z:     0.0014     Total:     0.0029

    SAPT Results
  --------------------------------------------------------------------------------------------------------
    Electrostatics                 -0.04398625 [mEh]      -0.02760179 [kcal/mol]      -0.11548588 [kJ/mol]
      Elst10,r                     -0.04962175 [mEh]      -0.03113812 [kcal/mol]      -0.13028189 [kJ/mol]
      Elst12,r                      0.00563550 [mEh]       0.00353633 [kcal/mol]       0.01479601 [kJ/mol]

    Exchange                        0.00021241 [mEh]       0.00013329 [kcal/mol]       0.00055769 [kJ/mol]
      Exch10                        0.00018759 [mEh]       0.00011771 [kcal/mol]       0.00049252 [kJ/mol]
      Exch10(S^2)                   0.00018759 [mEh]       0.00011771 [kcal/mol]       0.00049252 [kJ/mol]
      Exch11(S^2)                  -0.00000505 [mEh]      -0.00000317 [kcal/mol]      -0.00001326 [kJ/mol]
      Exch12(S^2)                   0.00002987 [mEh]       0.00001874 [kcal/mol]       0.00007843 [kJ/mol]

    Induction                      -0.00533248 [mEh]      -0.00334618 [kcal/mol]      -0.01400042 [kJ/mol]
      Ind20,r                      -0.00522427 [mEh]      -0.00327828 [kcal/mol]      -0.01371633 [kJ/mol]
      Ind22                         0.00014194 [mEh]       0.00008907 [kcal/mol]       0.00037266 [kJ/mol]
      Exch-Ind20,r                  0.00001882 [mEh]       0.00001181 [kcal/mol]       0.00004942 [kJ/mol]
      Exch-Ind22                   -0.00000051 [mEh]      -0.00000032 [kcal/mol]      -0.00000134 [kJ/mol]
      delta HF,r (2)               -0.00026846 [mEh]      -0.00016846 [kcal/mol]      -0.00070483 [kJ/mol]

    Dispersion                     -0.21111334 [mEh]      -0.13247562 [kcal/mol]      -0.55427799 [kJ/mol]
      Disp20                       -0.23645660 [mEh]      -0.14837876 [kcal/mol]      -0.62081673 [kJ/mol]
      Disp21                        0.06264621 [mEh]       0.03931109 [kcal/mol]       0.16447759 [kJ/mol]
      Disp22 (SDQ)                  0.01139259 [mEh]       0.00714896 [kcal/mol]       0.02991123 [kJ/mol]
      Disp22 (T)                   -0.04774383 [mEh]      -0.02995970 [kcal/mol]      -0.12535141 [kJ/mol]
      Est. Disp22 (T)              -0.04878101 [mEh]      -0.03061055 [kcal/mol]      -0.12807454 [kJ/mol]
      Exch-Disp20                   0.00008549 [mEh]       0.00005364 [kcal/mol]       0.00022445 [kJ/mol]

  Total HF                         -0.05490807 [mEh]      -0.03445533 [kcal/mol]      -0.14416112 [kJ/mol]
  Total SAPT0                      -0.29127919 [mEh]      -0.18278045 [kcal/mol]      -0.76475340 [kJ/mol]
  Total SAPT2                      -0.28547743 [mEh]      -0.17913979 [kcal/mol]      -0.74952090 [kJ/mol]
  Total SAPT2+                     -0.26021965 [mEh]      -0.16329030 [kcal/mol]      -0.68320661 [kJ/mol]

  Special recipe for scaled SAPT0 (see Manual):
    Electrostatics sSAPT0          -0.04962175 [mEh]      -0.03113812 [kcal/mol]      -0.13028189 [kJ/mol]
    Exchange sSAPT0                 0.00018759 [mEh]       0.00011771 [kcal/mol]       0.00049252 [kJ/mol]
    Induction sSAPT0               -0.00547391 [mEh]      -0.00343493 [kcal/mol]      -0.01437175 [kJ/mol]
    Dispersion sSAPT0              -0.23637112 [mEh]      -0.14832511 [kcal/mol]      -0.62059228 [kJ/mol]
  Total sSAPT0                     -0.29127919 [mEh]      -0.18278045 [kcal/mol]      -0.76475340 [kJ/mol]
  --------------------------------------------------------------------------------------------------------

*** Psi4 exiting successfully. Buy a developer a beer!
