                               Psi4 1.4a2.dev224

  ==> Input File <==

--------------------------------------------------------------------------
#Generated by lconvert.py for sapt job

memory 25 GB

molecule  {
0 1
  C       0.311950    0.561020    0.496700
  H       0.742140    1.553370    0.481570
  C       1.142180   -0.558070    0.536060
  H       2.216510   -0.434250    0.552350
  C       0.587800   -1.836690    0.554140
  H       1.231910   -2.704840    0.585220
  C      -0.796660   -1.996380    0.532960
  H      -1.226770   -2.988440    0.548640
  C      -1.626890   -0.877470    0.494170
  H      -2.701120   -1.001350    0.479810
  C      -1.072660    0.401210    0.475970
  H      -1.716970    1.269400    0.445920
--
0 1
  C       0.127270    0.471620    5.904660
  C       1.573520    0.650410    5.449700
  H       1.989380    1.583690    5.833120
  H       2.196920   -0.170210    5.808550
  H       1.634130    0.669800    4.360770
  C       0.072880    0.440250    7.429530
  H      -0.952910    0.312830    7.778620
  H       0.668290   -0.385440    7.822080
  H       0.461180    1.368140    7.852430
  C      -0.422110   -0.837870    5.344370
  H      -1.456980   -0.988150    5.657040
  H       0.164350   -1.686840    5.700180
  H      -0.393330   -0.838320    4.254050
  C      -0.714100    1.636190    5.388460
  H      -0.692560    1.672220    4.298460
  H      -1.753890    1.532420    5.702940
  H      -0.338450    2.586890    5.770560
units angstrom
no_reorient
symmetry c1
}

set {
scf_type DF
basis aug-cc-pvtz
freeze_core True
guess SAD
}
energy('sapt2+')
--------------------------------------------------------------------------

  //              Dimer HF             //
    Molecular point group: c1
  Charge       = 0
  Multiplicity = 1
  Basis Set: AUG-CC-PVTZ
    Blend: AUG-CC-PVTZ
  Basis Set: (AUG-CC-PVTZ AUX)
    Blend: AUG-CC-PVTZ-JKFIT
  @DF-RHF Final Energy:  -427.18599454155157
    Total Energy =                       -427.1859945415515085
  //            Monomer A HF           //
    Molecular point group: c1
  Multiplicity = 1
  Basis Set: AUG-CC-PVTZ
    Blend: AUG-CC-PVTZ
  Basis Set: (AUG-CC-PVTZ AUX)
    Blend: AUG-CC-PVTZ-JKFIT
  @DF-RHF Final Energy:  -230.78136155992894
    Total Energy =                       -230.7813615599289392
  //            Monomer B HF           //
    Molecular point group: c1

    Geometry (in Angstrom), charge = 0, multiplicity = 1:

       Center              X                  Y                   Z               Mass
    ------------   -----------------  -----------------  -----------------  -----------------
      Gh(C)           0.376752136729     0.707468277884    -2.605663353536    12.000000000000
      Gh(H)           0.806942136729     1.699818277884    -2.620793353536     1.007825032230
      Gh(C)           1.206982136729    -0.411621722116    -2.566303353536    12.000000000000
      Gh(H)           2.281312136729    -0.287801722116    -2.550013353536     1.007825032230
      Gh(C)           0.652602136729    -1.690241722116    -2.548223353536    12.000000000000
      Gh(H)           1.296712136729    -2.558391722116    -2.517143353536     1.007825032230
      Gh(C)          -0.731857863271    -1.849931722116    -2.569403353536    12.000000000000
      Gh(H)          -1.161967863271    -2.841991722116    -2.553723353536     1.007825032230
      Gh(C)          -1.562087863271    -0.731021722116    -2.608193353536    12.000000000000
      Gh(H)          -2.636317863271    -0.854901722116    -2.622553353536     1.007825032230
      Gh(C)          -1.007857863271     0.547658277884    -2.626393353536    12.000000000000
      Gh(H)          -1.652167863271     1.415848277884    -2.656443353536     1.007825032230
         C            0.192072136729     0.618068277884     2.802296646464    12.000000000000
         C            1.638322136729     0.796858277884     2.347336646464    12.000000000000
         H            2.054182136729     1.730138277884     2.730756646464     1.007825032230
         H            2.261722136729    -0.023761722116     2.706186646464     1.007825032230
         H            1.698932136729     0.816248277884     1.258406646464     1.007825032230
         C            0.137682136729     0.586698277884     4.327166646464    12.000000000000
         H           -0.888107863271     0.459278277884     4.676256646464     1.007825032230
         H            0.733092136729    -0.238991722116     4.719716646464     1.007825032230
         H            0.525982136729     1.514588277884     4.750066646464     1.007825032230
         C           -0.357307863271    -0.691421722116     2.242006646464    12.000000000000
         H           -1.392177863271    -0.841701722116     2.554676646464     1.007825032230
         H            0.229152136729    -1.540391722116     2.597816646464     1.007825032230
         H           -0.328527863271    -0.691871722116     1.151686646464     1.007825032230
         C           -0.649297863271     1.782638277884     2.286096646464    12.000000000000
         H           -0.627757863271     1.818668277884     1.196096646464     1.007825032230
         H           -1.689087863271     1.678868277884     2.600576646464     1.007825032230
         H           -0.273647863271     2.733338277884     2.668196646464     1.007825032230

  Charge       = 0
  Multiplicity = 1
  Basis Set: AUG-CC-PVTZ
    Blend: AUG-CC-PVTZ
  Basis Set: (AUG-CC-PVTZ AUX)
    Blend: AUG-CC-PVTZ-JKFIT

    Orbital Energies [Eh]
    ---------------------

    Doubly Occupied:

       1A    -11.226698     2A    -11.205752     3A    -11.205663
       4A    -11.205601     5A    -11.205579     6A     -1.106575
       7A     -0.928896     8A     -0.928567     9A     -0.928532
      10A     -0.729633    11A     -0.612243    12A     -0.611739
      13A     -0.611485    14A     -0.553113    15A     -0.552770
      16A     -0.509548    17A     -0.509394    18A     -0.508927
      19A     -0.452940    20A     -0.452016    21A     -0.451953

  @DF-RHF Final Energy:  -196.40451332855309

   => Energetics <=

    Nuclear Repulsion Energy =            199.3733083875947329
    One-Electron Energy =                -658.5604205578410983
    Two-Electron Energy =                 262.7825988416932432
    Total Energy =                       -196.4045133285530937

  Dipole Moment: [D]
     X:    -0.0010      Y:    -0.0024      Z:     0.0014     Total:     0.0030

    SAPT Results
  --------------------------------------------------------------------------------------------------------
    Electrostatics                 -0.30878615 [mEh]      -0.19376623 [kcal/mol]      -0.81071792 [kJ/mol]
      Elst10,r                     -0.31753318 [mEh]      -0.19925508 [kcal/mol]      -0.83368324 [kJ/mol]
      Elst12,r                      0.00874703 [mEh]       0.00548884 [kcal/mol]       0.02296533 [kJ/mol]

    Exchange                        0.31225877 [mEh]       0.19594534 [kcal/mol]       0.81983529 [kJ/mol]
      Exch10                        0.28376707 [mEh]       0.17806653 [kcal/mol]       0.74503034 [kJ/mol]
      Exch10(S^2)                   0.28374703 [mEh]       0.17805395 [kcal/mol]       0.74497772 [kJ/mol]
      Exch11(S^2)                   0.00840880 [mEh]       0.00527660 [kcal/mol]       0.02207730 [kJ/mol]
      Exch12(S^2)                   0.02008290 [mEh]       0.01260221 [kcal/mol]       0.05272765 [kJ/mol]

    Induction                      -0.08821163 [mEh]      -0.05535364 [kcal/mol]      -0.23159961 [kJ/mol]
      Ind20,r                      -0.10530404 [mEh]      -0.06607928 [kcal/mol]      -0.27647572 [kJ/mol]
      Ind22                        -0.00376363 [mEh]      -0.00236171 [kcal/mol]      -0.00988140 [kJ/mol]
      Exch-Ind20,r                  0.04026113 [mEh]       0.02526424 [kcal/mol]       0.10570559 [kJ/mol]
      Exch-Ind22                    0.00143896 [mEh]       0.00090296 [kcal/mol]       0.00377798 [kJ/mol]
      delta HF,r (2)               -0.02084405 [mEh]      -0.01307984 [kcal/mol]      -0.05472606 [kJ/mol]

    Dispersion                     -2.13838949 [mEh]      -1.34185966 [kcal/mol]      -5.61434083 [kJ/mol]
      Disp20                       -2.34947866 [mEh]      -1.47432012 [kcal/mol]      -6.16855538 [kJ/mol]
      Disp21                        0.48637893 [mEh]       0.30520739 [kcal/mol]       1.27698770 [kJ/mol]
      Disp22 (SDQ)                  0.13547336 [mEh]       0.08501081 [kcal/mol]       0.35568525 [kJ/mol]
      Disp22 (T)                   -0.44686850 [mEh]      -0.28041422 [kcal/mol]      -1.17325309 [kJ/mol]
      Est. Disp22 (T)              -0.47495819 [mEh]      -0.29804076 [kcal/mol]      -1.24700256 [kJ/mol]
      Exch-Disp20                   0.06419508 [mEh]       0.04028302 [kcal/mol]       0.16854416 [kJ/mol]

  Total HF                         -0.11965307 [mEh]      -0.07508343 [kcal/mol]      -0.31414909 [kJ/mol]
  Total SAPT0                      -2.40493665 [mEh]      -1.50912053 [kcal/mol]      -6.31416031 [kJ/mol]
  Total SAPT2                      -2.37002259 [mEh]      -1.48721163 [kcal/mol]      -6.22249346 [kJ/mol]
  Total SAPT2+                     -2.22312850 [mEh]      -1.39503420 [kcal/mol]      -5.83682308 [kJ/mol]

  Special recipe for scaled SAPT0 (see Manual):
    Electrostatics sSAPT0          -0.31753318 [mEh]      -0.19925508 [kcal/mol]      -0.83368324 [kJ/mol]
    Exchange sSAPT0                 0.28376707 [mEh]       0.17806653 [kcal/mol]       0.74503034 [kJ/mol]
    Induction sSAPT0               -0.08587843 [mEh]      -0.05388953 [kcal/mol]      -0.22547379 [kJ/mol]
    Dispersion sSAPT0              -2.28526998 [mEh]      -1.43402856 [kcal/mol]      -5.99997549 [kJ/mol]
  Total sSAPT0                     -2.40491451 [mEh]      -1.50910664 [kcal/mol]      -6.31410218 [kJ/mol]
  --------------------------------------------------------------------------------------------------------

*** Psi4 exiting successfully. Buy a developer a beer!
