                               Psi4 1.4a2.dev224

  ==> Input File <==

--------------------------------------------------------------------------
#Generated by lconvert.py for sapt job

memory 50 GB

molecule  {
0 1
  N      -0.208910   -0.964580    0.534760
  H      -0.224150   -1.973110    0.605080
  C      -1.446340   -0.344580    0.306660
  O      -2.461240   -1.010790    0.197890
  C      -1.357780    1.103190    0.228140
  H      -2.256570    1.667730    0.049850
  C      -0.163000    1.709890    0.381130
  H      -0.046290    2.782450    0.333350
  N       0.985450    1.000820    0.611210
  H       1.867560    1.466930    0.744780
  C       1.027020   -0.379170    0.712650
  O       2.049200   -0.997400    0.937260
--
0 1
  C       1.371090    2.386840    6.789530
  H       0.940240    2.697890    5.836750
  H       0.736860    2.792270    7.577780
  H       2.353970    2.847290    6.882650
  C       1.444110    0.867970    6.879050
  H       1.874490    0.578400    7.840340
  H       2.118700    0.476810    6.113930
  C       0.079320    0.209800    6.724230
  H      -0.591920    0.578680    7.505850
  H      -0.368150    0.520070    5.774330
  C       0.135610   -1.310890    6.783870
  H       0.559220   -1.613320    7.744510
  H       0.827130   -1.672770    6.019370
  C      -1.233670   -1.952760    6.600100
  H      -1.672050   -1.679300    5.639910
  H      -1.176730   -3.039530    6.644150
  H      -1.921630   -1.624410    7.379330
units angstrom
no_reorient
symmetry c1
}

set {
scf_type DF
basis aug-cc-pvtz
freeze_core True
guess SAD
}
energy('sapt2+')
--------------------------------------------------------------------------

  //              Dimer HF             //
    Molecular point group: c1
  Charge       = 0
  Multiplicity = 1
  Basis Set: AUG-CC-PVTZ
    Blend: AUG-CC-PVTZ
  Basis Set: (AUG-CC-PVTZ AUX)
    Blend: AUG-CC-PVTZ-JKFIT
  @DF-RHF Final Energy:  -609.02892937026513
    Total Energy =                       -609.0289293702651321
  //            Monomer A HF           //
    Molecular point group: c1
  Multiplicity = 1
  Basis Set: AUG-CC-PVTZ
    Blend: AUG-CC-PVTZ
  Basis Set: (AUG-CC-PVTZ AUX)
    Blend: AUG-CC-PVTZ-JKFIT
  @DF-RHF Final Energy:  -412.62459746780007
    Total Energy =                       -412.6245974678000721
  //            Monomer B HF           //
    Molecular point group: c1

    Geometry (in Angstrom), charge = 0, multiplicity = 1:

       Center              X                  Y                   Z               Mass
    ------------   -----------------  -----------------  -----------------  -----------------
      Gh(N)          -0.239346690955    -0.968456857359    -2.411164438934    14.003074004430
      Gh(H)          -0.254586690955    -1.976986857359    -2.340844438934     1.007825032230
      Gh(C)          -1.476776690955    -0.348456857359    -2.639264438934    12.000000000000
      Gh(O)          -2.491676690955    -1.014666857359    -2.748034438934    15.994914619570
      Gh(C)          -1.388216690955     1.099313142641    -2.717784438934    12.000000000000
      Gh(H)          -2.287006690955     1.663853142641    -2.896074438934     1.007825032230
      Gh(C)          -0.193436690955     1.706013142641    -2.564794438934    12.000000000000
      Gh(H)          -0.076726690955     2.778573142641    -2.612574438934     1.007825032230
      Gh(N)           0.955013309045     0.996943142641    -2.334714438934    14.003074004430
      Gh(H)           1.837123309045     1.463053142641    -2.201144438934     1.007825032230
      Gh(C)           0.996583309045    -0.383046857359    -2.233274438934    12.000000000000
      Gh(O)           2.018763309045    -1.001276857359    -2.008664438934    15.994914619570
         C            1.340653309045     2.382963142641     3.843605561066    12.000000000000
         H            0.909803309045     2.694013142641     2.890825561066     1.007825032230
         H            0.706423309045     2.788393142641     4.631855561066     1.007825032230
         H            2.323533309045     2.843413142641     3.936725561066     1.007825032230
         C            1.413673309045     0.864093142641     3.933125561066    12.000000000000
         H            1.844053309045     0.574523142641     4.894415561066     1.007825032230
         H            2.088263309045     0.472933142641     3.168005561066     1.007825032230
         C            0.048883309045     0.205923142641     3.778305561066    12.000000000000
         H           -0.622356690955     0.574803142641     4.559925561066     1.007825032230
         H           -0.398586690955     0.516193142641     2.828405561066     1.007825032230
         C            0.105173309045    -1.314766857359     3.837945561066    12.000000000000
         H            0.528783309045    -1.617196857359     4.798585561066     1.007825032230
         H            0.796693309045    -1.676646857359     3.073445561066     1.007825032230
         C           -1.264106690955    -1.956636857359     3.654175561066    12.000000000000
         H           -1.702486690955    -1.683176857359     2.693985561066     1.007825032230
         H           -1.207166690955    -3.043406857359     3.698225561066     1.007825032230
         H           -1.952066690955    -1.628286857359     4.433405561066     1.007825032230

  Charge       = 0
  Multiplicity = 1
  Basis Set: AUG-CC-PVTZ
    Blend: AUG-CC-PVTZ
  Basis Set: (AUG-CC-PVTZ AUX)
    Blend: AUG-CC-PVTZ-JKFIT

    Orbital Energies [Eh]
    ---------------------

    Doubly Occupied:

       1A    -11.212734     2A    -11.212636     3A    -11.210234
       4A    -11.207247     5A    -11.207233     6A     -1.081046
       7A     -1.015100     8A     -0.918741     9A     -0.820030
      10A     -0.785374    11A     -0.646660    12A     -0.598325
      13A     -0.592168    14A     -0.554212    15A     -0.547353
      16A     -0.524823    17A     -0.495236    18A     -0.475498
      19A     -0.462578    20A     -0.458707    21A     -0.446420

  @DF-RHF Final Energy:  -196.40430355908762

   => Energetics <=

    Nuclear Repulsion Energy =            185.6166156986717510
    One-Electron Energy =                -631.0971256200359676
    Two-Electron Energy =                 249.0762063622765936
    Total Energy =                       -196.4043035590876229

  Dipole Moment: [D]
     X:     0.0672      Y:    -0.0442      Z:     0.0207     Total:     0.0830

    SAPT Results
  --------------------------------------------------------------------------------------------------------
    Electrostatics                 -0.00775387 [mEh]      -0.00486563 [kcal/mol]      -0.02035778 [kJ/mol]
      Elst10,r                     -0.00130526 [mEh]      -0.00081906 [kcal/mol]      -0.00342696 [kJ/mol]
      Elst12,r                     -0.00644861 [mEh]      -0.00404656 [kcal/mol]      -0.01693082 [kJ/mol]

    Exchange                        0.00125936 [mEh]       0.00079026 [kcal/mol]       0.00330645 [kJ/mol]
      Exch10                        0.00098814 [mEh]       0.00062007 [kcal/mol]       0.00259437 [kJ/mol]
      Exch10(S^2)                   0.00098814 [mEh]       0.00062007 [kcal/mol]       0.00259437 [kJ/mol]
      Exch11(S^2)                  -0.00004191 [mEh]      -0.00002630 [kcal/mol]      -0.00011002 [kJ/mol]
      Exch12(S^2)                   0.00031312 [mEh]       0.00019649 [kcal/mol]       0.00082210 [kJ/mol]

    Induction                      -0.02027515 [mEh]      -0.01272285 [kcal/mol]      -0.05323239 [kJ/mol]
      Ind20,r                      -0.02810350 [mEh]      -0.01763521 [kcal/mol]      -0.07378572 [kJ/mol]
      Ind22                         0.00779504 [mEh]       0.00489146 [kcal/mol]       0.02046588 [kJ/mol]
      Exch-Ind20,r                  0.00015836 [mEh]       0.00009937 [kcal/mol]       0.00041578 [kJ/mol]
      Exch-Ind22                   -0.00004392 [mEh]      -0.00002756 [kcal/mol]      -0.00011532 [kJ/mol]
      delta HF,r (2)               -0.00008113 [mEh]      -0.00005091 [kcal/mol]      -0.00021300 [kJ/mol]

    Dispersion                     -0.52473040 [mEh]      -0.32927330 [kcal/mol]      -1.37767949 [kJ/mol]
      Disp20                       -0.54727883 [mEh]      -0.34342265 [kcal/mol]      -1.43688036 [kJ/mol]
      Disp21                        0.13607689 [mEh]       0.08538954 [kcal/mol]       0.35726982 [kJ/mol]
      Disp22 (SDQ)                 -0.00100970 [mEh]      -0.00063360 [kcal/mol]      -0.00265098 [kJ/mol]
      Disp22 (T)                   -0.11055875 [mEh]      -0.06937666 [kcal/mol]      -0.29027196 [kJ/mol]
      Est. Disp22 (T)              -0.11283466 [mEh]      -0.07080482 [kcal/mol]      -0.29624736 [kJ/mol]
      Exch-Disp20                   0.00031590 [mEh]       0.00019823 [kcal/mol]       0.00082939 [kJ/mol]

  Total HF                         -0.02834338 [mEh]      -0.01778574 [kcal/mol]      -0.07441553 [kJ/mol]
  Total SAPT0                      -0.57530630 [mEh]      -0.36101016 [kcal/mol]      -1.51046649 [kJ/mol]
  Total SAPT2                      -0.57373258 [mEh]      -0.36002263 [kcal/mol]      -1.50633468 [kJ/mol]
  Total SAPT2+                     -0.55150006 [mEh]      -0.34607151 [kcal/mol]      -1.44796320 [kJ/mol]

  Special recipe for scaled SAPT0 (see Manual):
    Electrostatics sSAPT0          -0.00130526 [mEh]      -0.00081906 [kcal/mol]      -0.00342696 [kJ/mol]
    Exchange sSAPT0                 0.00098814 [mEh]       0.00062007 [kcal/mol]       0.00259437 [kJ/mol]
    Induction sSAPT0               -0.02802626 [mEh]      -0.01758674 [kcal/mol]      -0.07358294 [kJ/mol]
    Dispersion sSAPT0              -0.54696293 [mEh]      -0.34322442 [kcal/mol]      -1.43605097 [kJ/mol]
  Total sSAPT0                     -0.57530630 [mEh]      -0.36101016 [kcal/mol]      -1.51046649 [kJ/mol]
  --------------------------------------------------------------------------------------------------------

*** Psi4 exiting successfully. Buy a developer a beer!
