                               Psi4 1.4a2.dev224

  ==> Input File <==

--------------------------------------------------------------------------
#Generated by lconvert.py for sapt job

memory 50 GB

molecule  {
0 1
  N      -0.208910   -0.964580    0.534760
  H      -0.224150   -1.973110    0.605080
  C      -1.446340   -0.344580    0.306660
  O      -2.461240   -1.010790    0.197890
  C      -1.357780    1.103190    0.228140
  H      -2.256570    1.667730    0.049850
  C      -0.163000    1.709890    0.381130
  H      -0.046290    2.782450    0.333350
  N       0.985450    1.000820    0.611210
  H       1.867560    1.466930    0.744780
  C       1.027020   -0.379170    0.712650
  O       2.049200   -0.997400    0.937260
--
0 1
  C       1.296050    2.377100    5.896840
  H       0.865210    2.688150    4.944050
  H       0.661820    2.782530    6.685080
  H       2.278940    2.837550    5.989960
  C       1.369070    0.858230    5.986360
  H       1.799460    0.568670    6.947650
  H       2.043660    0.467070    5.221240
  C       0.004290    0.200060    5.831540
  H      -0.666960    0.568940    6.613160
  H      -0.443180    0.510330    4.881640
  C       0.060570   -1.320620    5.891170
  H       0.484180   -1.623050    6.851810
  H       0.752100   -1.682500    5.126670
  C      -1.308710   -1.962500    5.707400
  H      -1.747090   -1.689040    4.747210
  H      -1.251770   -3.049270    5.751460
  H      -1.996670   -1.634150    6.486630
units angstrom
no_reorient
symmetry c1
}

set {
scf_type DF
basis aug-cc-pvtz
freeze_core True
guess SAD
}
energy('sapt2+')
--------------------------------------------------------------------------

  //              Dimer HF             //
    Molecular point group: c1
  Charge       = 0
  Multiplicity = 1
  Basis Set: AUG-CC-PVTZ
    Blend: AUG-CC-PVTZ
  Basis Set: (AUG-CC-PVTZ AUX)
    Blend: AUG-CC-PVTZ-JKFIT
  @DF-RHF Final Energy:  -609.02902755807565
    Total Energy =                       -609.0290275580756543
  //            Monomer A HF           //
    Molecular point group: c1
  Multiplicity = 1
  Basis Set: AUG-CC-PVTZ
    Blend: AUG-CC-PVTZ
  Basis Set: (AUG-CC-PVTZ AUX)
    Blend: AUG-CC-PVTZ-JKFIT
  @DF-RHF Final Energy:  -412.62465224576562
    Total Energy =                       -412.6246522457656170
  //            Monomer B HF           //
    Molecular point group: c1

    Geometry (in Angstrom), charge = 0, multiplicity = 1:

       Center              X                  Y                   Z               Mass
    ------------   -----------------  -----------------  -----------------  -----------------
      Gh(N)          -0.209965193620    -0.964643910019    -2.061623961367    14.003074004430
      Gh(H)          -0.225205193620    -1.973173910019    -1.991303961367     1.007825032230
      Gh(C)          -1.447395193620    -0.344643910019    -2.289723961367    12.000000000000
      Gh(O)          -2.462295193620    -1.010853910019    -2.398493961367    15.994914619570
      Gh(C)          -1.358835193620     1.103126089981    -2.368243961367    12.000000000000
      Gh(H)          -2.257625193620     1.667666089981    -2.546533961367     1.007825032230
      Gh(C)          -0.164055193620     1.709826089981    -2.215253961367    12.000000000000
      Gh(H)          -0.047345193620     2.782386089981    -2.263033961367     1.007825032230
      Gh(N)           0.984394806380     1.000756089981    -1.985173961367    14.003074004430
      Gh(H)           1.866504806380     1.466866089981    -1.851603961367     1.007825032230
      Gh(C)           1.025964806380    -0.379233910019    -1.883733961367    12.000000000000
      Gh(O)           2.048144806380    -0.997463910019    -1.659123961367    15.994914619570
         C            1.294994806380     2.377036089981     3.300456038633    12.000000000000
         H            0.864154806380     2.688086089981     2.347666038633     1.007825032230
         H            0.660764806380     2.782466089981     4.088696038633     1.007825032230
         H            2.277884806380     2.837486089981     3.393576038633     1.007825032230
         C            1.368014806380     0.858166089981     3.389976038633    12.000000000000
         H            1.798404806380     0.568606089981     4.351266038633     1.007825032230
         H            2.042604806380     0.467006089981     2.624856038633     1.007825032230
         C            0.003234806380     0.199996089981     3.235156038633    12.000000000000
         H           -0.668015193620     0.568876089981     4.016776038633     1.007825032230
         H           -0.444235193620     0.510266089981     2.285256038633     1.007825032230
         C            0.059514806380    -1.320683910019     3.294786038633    12.000000000000
         H            0.483124806380    -1.623113910019     4.255426038633     1.007825032230
         H            0.751044806380    -1.682563910019     2.530286038633     1.007825032230
         C           -1.309765193620    -1.962563910019     3.111016038633    12.000000000000
         H           -1.748145193620    -1.689103910019     2.150826038633     1.007825032230
         H           -1.252825193620    -3.049333910019     3.155076038633     1.007825032230
         H           -1.997725193620    -1.634213910019     3.890246038633     1.007825032230

  Charge       = 0
  Multiplicity = 1
  Basis Set: AUG-CC-PVTZ
    Blend: AUG-CC-PVTZ
  Basis Set: (AUG-CC-PVTZ AUX)
    Blend: AUG-CC-PVTZ-JKFIT

    Orbital Energies [Eh]
    ---------------------

    Doubly Occupied:

       1A    -11.212736     2A    -11.212637     3A    -11.210236
       4A    -11.207250     5A    -11.207235     6A     -1.081048
       7A     -1.015100     8A     -0.918742     9A     -0.820031
      10A     -0.785374    11A     -0.646661    12A     -0.598325
      13A     -0.592168    14A     -0.554214    15A     -0.547352
      16A     -0.524824    17A     -0.495235    18A     -0.475498
      19A     -0.462577    20A     -0.458705    21A     -0.446423

  @DF-RHF Final Energy:  -196.40431006376662

   => Energetics <=

    Nuclear Repulsion Energy =            185.6167518104705323
    One-Electron Energy =                -631.0973842618493563
    Two-Electron Energy =                 249.0763223876122083
    Total Energy =                       -196.4043100637666157

  Dipole Moment: [D]
     X:     0.0672      Y:    -0.0442      Z:     0.0208     Total:     0.0831

    SAPT Results
  --------------------------------------------------------------------------------------------------------
    Electrostatics                 -0.03680522 [mEh]      -0.02309562 [kcal/mol]      -0.09663208 [kJ/mol]
      Elst10,r                     -0.02255182 [mEh]      -0.01415148 [kcal/mol]      -0.05920980 [kJ/mol]
      Elst12,r                     -0.01425339 [mEh]      -0.00894414 [kcal/mol]      -0.03742228 [kJ/mol]

    Exchange                        0.02763674 [mEh]       0.01734231 [kcal/mol]       0.07256025 [kJ/mol]
      Exch10                        0.02242480 [mEh]       0.01407178 [kcal/mol]       0.05887632 [kJ/mol]
      Exch10(S^2)                   0.02242482 [mEh]       0.01407179 [kcal/mol]       0.05887635 [kJ/mol]
      Exch11(S^2)                  -0.00044000 [mEh]      -0.00027611 [kcal/mol]      -0.00115523 [kJ/mol]
      Exch12(S^2)                   0.00565194 [mEh]       0.00354664 [kcal/mol]       0.01483916 [kJ/mol]

    Induction                      -0.04803673 [mEh]      -0.03014351 [kcal/mol]      -0.12612043 [kJ/mol]
      Ind20,r                      -0.06766236 [mEh]      -0.04245877 [kcal/mol]      -0.17764751 [kJ/mol]
      Ind22                         0.01810440 [mEh]       0.01136068 [kcal/mol]       0.04753309 [kJ/mol]
      Exch-Ind20,r                  0.00381062 [mEh]       0.00239120 [kcal/mol]       0.01000479 [kJ/mol]
      Exch-Ind22                   -0.00101961 [mEh]      -0.00063981 [kcal/mol]      -0.00267698 [kJ/mol]
      delta HF,r (2)               -0.00126979 [mEh]      -0.00079680 [kcal/mol]      -0.00333382 [kJ/mol]

    Dispersion                     -1.30531519 [mEh]      -0.81909765 [kcal/mol]      -3.42710456 [kJ/mol]
      Disp20                       -1.34317028 [mEh]      -0.84285207 [kcal/mol]      -3.52649308 [kJ/mol]
      Disp21                        0.31029294 [mEh]       0.19471176 [kcal/mol]       0.81467400 [kJ/mol]
      Disp22 (SDQ)                 -0.00289013 [mEh]      -0.00181359 [kcal/mol]      -0.00758804 [kJ/mol]
      Disp22 (T)                   -0.26654269 [mEh]      -0.16725806 [kcal/mol]      -0.69980774 [kJ/mol]
      Est. Disp22 (T)              -0.27514538 [mEh]      -0.17265633 [kcal/mol]      -0.72239409 [kJ/mol]
      Exch-Disp20                   0.00559766 [mEh]       0.00351258 [kcal/mol]       0.01469665 [kJ/mol]

  Total HF                         -0.06524854 [mEh]      -0.04094408 [kcal/mol]      -0.17131003 [kJ/mol]
  Total SAPT0                      -1.40282117 [mEh]      -0.88028357 [kcal/mol]      -3.68310646 [kJ/mol]
  Total SAPT2                      -1.39477783 [mEh]      -0.87523630 [kcal/mol]      -3.66198870 [kJ/mol]
  Total SAPT2+                     -1.36252040 [mEh]      -0.85499446 [kcal/mol]      -3.57729682 [kJ/mol]

  Special recipe for scaled SAPT0 (see Manual):
    Electrostatics sSAPT0          -0.02255182 [mEh]      -0.01415148 [kcal/mol]      -0.05920980 [kJ/mol]
    Exchange sSAPT0                 0.02242480 [mEh]       0.01407178 [kcal/mol]       0.05887632 [kJ/mol]
    Induction sSAPT0               -0.06512153 [mEh]      -0.04086438 [kcal/mol]      -0.17097656 [kJ/mol]
    Dispersion sSAPT0              -1.33757263 [mEh]      -0.83933950 [kcal/mol]      -3.51179646 [kJ/mol]
  Total sSAPT0                     -1.40282118 [mEh]      -0.88028358 [kcal/mol]      -3.68310651 [kJ/mol]
  --------------------------------------------------------------------------------------------------------

*** Psi4 exiting successfully. Buy a developer a beer!
