                               Psi4 1.4a2.dev224

  ==> Input File <==

--------------------------------------------------------------------------
#Generated by lconvert.py for sapt job

memory 60 GB

molecule  {
0 1
  N      -0.208910   -0.964580    0.534760
  H      -0.224150   -1.973110    0.605080
  C      -1.446340   -0.344580    0.306660
  O      -2.461240   -1.010790    0.197890
  C      -1.357780    1.103190    0.228140
  H      -2.256570    1.667730    0.049850
  C      -0.163000    1.709890    0.381130
  H      -0.046290    2.782450    0.333350
  N       0.985450    1.000820    0.611210
  H       1.867560    1.466930    0.744780
  C       1.027020   -0.379170    0.712650
  O       2.049200   -0.997400    0.937260
--
0 1
  C       1.221020    2.367360    5.004140
  H       0.790170    2.678410    4.051360
  H       0.586790    2.772800    5.792390
  H       2.203900    2.827810    5.097260
  C       1.294040    0.848490    5.093660
  H       1.724420    0.558930    6.054950
  H       1.968630    0.457330    4.328540
  C      -0.070750    0.190320    4.938840
  H      -0.741990    0.559200    5.720460
  H      -0.518220    0.500590    3.988940
  C      -0.014460   -1.330360    4.998480
  H       0.409140   -1.632790    5.959120
  H       0.677060   -1.692240    4.233980
  C      -1.383740   -1.972230    4.814710
  H      -1.822120   -1.698780    3.854520
  H      -1.326810   -3.059000    4.858760
  H      -2.071710   -1.643890    5.593940
units angstrom
no_reorient
symmetry c1
}

set {
scf_type DF
basis aug-cc-pvtz
freeze_core True
guess SAD
}
energy('sapt2+')
--------------------------------------------------------------------------

  //              Dimer HF             //
    Molecular point group: c1
  Charge       = 0
  Multiplicity = 1
  Basis Set: AUG-CC-PVTZ
    Blend: AUG-CC-PVTZ
  Basis Set: (AUG-CC-PVTZ AUX)
    Blend: AUG-CC-PVTZ-JKFIT
  @DF-RHF Final Energy:  -609.02903688569938
    Total Energy =                       -609.0290368856993837
  //            Monomer A HF           //
    Molecular point group: c1
  Multiplicity = 1
  Basis Set: AUG-CC-PVTZ
    Blend: AUG-CC-PVTZ
  Basis Set: (AUG-CC-PVTZ AUX)
    Blend: AUG-CC-PVTZ-JKFIT
  @DF-RHF Final Energy:  -412.62475924628990
    Total Energy =                       -412.6247592462898979
  //            Monomer B HF           //
    Molecular point group: c1

    Geometry (in Angstrom), charge = 0, multiplicity = 1:

       Center              X                  Y                   Z               Mass
    ------------   -----------------  -----------------  -----------------  -----------------
      Gh(N)          -0.180585596782    -0.960830907942    -1.712082832055    14.003074004430
      Gh(H)          -0.195825596782    -1.969360907942    -1.641762832055     1.007825032230
      Gh(C)          -1.418015596782    -0.340830907942    -1.940182832055    12.000000000000
      Gh(O)          -2.432915596782    -1.007040907942    -2.048952832055    15.994914619570
      Gh(C)          -1.329455596782     1.106939092058    -2.018702832055    12.000000000000
      Gh(H)          -2.228245596782     1.671479092058    -2.196992832055     1.007825032230
      Gh(C)          -0.134675596782     1.713639092058    -1.865712832055    12.000000000000
      Gh(H)          -0.017965596782     2.786199092058    -1.913492832055     1.007825032230
      Gh(N)           1.013774403218     1.004569092058    -1.635632832055    14.003074004430
      Gh(H)           1.895884403218     1.470679092058    -1.502062832055     1.007825032230
      Gh(C)           1.055344403218    -0.375420907942    -1.534192832055    12.000000000000
      Gh(O)           2.077524403218    -0.993650907942    -1.309582832055    15.994914619570
         C            1.249344403218     2.371109092058     2.757297167945    12.000000000000
         H            0.818494403218     2.682159092058     1.804517167945     1.007825032230
         H            0.615114403218     2.776549092058     3.545547167945     1.007825032230
         H            2.232224403218     2.831559092058     2.850417167945     1.007825032230
         C            1.322364403218     0.852239092058     2.846817167945    12.000000000000
         H            1.752744403218     0.562679092058     3.808107167945     1.007825032230
         H            1.996954403218     0.461079092058     2.081697167945     1.007825032230
         C           -0.042425596782     0.194069092058     2.691997167945    12.000000000000
         H           -0.713665596782     0.562949092058     3.473617167945     1.007825032230
         H           -0.489895596782     0.504339092058     1.742097167945     1.007825032230
         C            0.013864403218    -1.326610907942     2.751637167945    12.000000000000
         H            0.437464403218    -1.629040907942     3.712277167945     1.007825032230
         H            0.705384403218    -1.688490907942     1.987137167945     1.007825032230
         C           -1.355415596782    -1.968480907942     2.567867167945    12.000000000000
         H           -1.793795596782    -1.695030907942     1.607677167945     1.007825032230
         H           -1.298485596782    -3.055250907942     2.611917167945     1.007825032230
         H           -2.043385596782    -1.640140907942     3.347097167945     1.007825032230

  Charge       = 0
  Multiplicity = 1
  Basis Set: AUG-CC-PVTZ
    Blend: AUG-CC-PVTZ
  Basis Set: (AUG-CC-PVTZ AUX)
    Blend: AUG-CC-PVTZ-JKFIT

    Orbital Energies [Eh]
    ---------------------

    Doubly Occupied:

       1A    -11.212738     2A    -11.212639     3A    -11.210241
       4A    -11.207250     5A    -11.207236     6A     -1.081048
       7A     -1.015101     8A     -0.918742     9A     -0.820031
      10A     -0.785376    11A     -0.646662    12A     -0.598325
      13A     -0.592168    14A     -0.554214    15A     -0.547352
      16A     -0.524823    17A     -0.495236    18A     -0.475499
      19A     -0.462578    20A     -0.458707    21A     -0.446421

  @DF-RHF Final Energy:  -196.40432188449057

   => Energetics <=

    Nuclear Repulsion Energy =            185.6168223407991036
    One-Electron Energy =                -631.0975114062514422
    Two-Electron Energy =                 249.0763671809617676
    Total Energy =                       -196.4043218844905709

  Dipole Moment: [D]
     X:     0.0672      Y:    -0.0442      Z:     0.0208     Total:     0.0831

    SAPT Results
  --------------------------------------------------------------------------------------------------------
    Electrostatics                 -0.30621034 [mEh]      -0.19214989 [kcal/mol]      -0.80395515 [kJ/mol]
      Elst10,r                     -0.23575579 [mEh]      -0.14793899 [kcal/mol]      -0.61897675 [kJ/mol]
      Elst12,r                     -0.07045455 [mEh]      -0.04421090 [kcal/mol]      -0.18497839 [kJ/mol]

    Exchange                        0.56198086 [mEh]       0.35264831 [kcal/mol]       1.47548054 [kJ/mol]
      Exch10                        0.47880524 [mEh]       0.30045482 [kcal/mol]       1.25710297 [kJ/mol]
      Exch10(S^2)                   0.47878464 [mEh]       0.30044190 [kcal/mol]       1.25704890 [kJ/mol]
      Exch11(S^2)                   0.00146520 [mEh]       0.00091943 [kcal/mol]       0.00384688 [kJ/mol]
      Exch12(S^2)                   0.08171042 [mEh]       0.05127407 [kcal/mol]       0.21453069 [kJ/mol]

    Induction                      -0.17672796 [mEh]      -0.11089847 [kcal/mol]      -0.46399920 [kJ/mol]
      Ind20,r                      -0.27124830 [mEh]      -0.17021088 [kcal/mol]      -0.71216230 [kJ/mol]
      Ind22                         0.03398677 [mEh]       0.02132702 [kcal/mol]       0.08923226 [kJ/mol]
      Exch-Ind20,r                  0.09505666 [mEh]       0.05964895 [kcal/mol]       0.24957122 [kJ/mol]
      Exch-Ind22                   -0.01191038 [mEh]      -0.00747387 [kcal/mol]      -0.03127069 [kJ/mol]
      delta HF,r (2)               -0.02261273 [mEh]      -0.01418970 [kcal/mol]      -0.05936970 [kJ/mol]

    Dispersion                     -3.85761177 [mEh]      -2.42068793 [kcal/mol]     -10.12815832 [kJ/mol]
      Disp20                       -3.94556344 [mEh]      -2.47587844 [kcal/mol]     -10.35907539 [kJ/mol]
      Disp21                        0.79911590 [mEh]       0.50145280 [kcal/mol]       2.09807852 [kJ/mol]
      Disp22 (SDQ)                 -0.00661551 [mEh]      -0.00415130 [kcal/mol]      -0.01736902 [kJ/mol]
      Disp22 (T)                   -0.75289019 [mEh]      -0.47244573 [kcal/mol]      -1.97671293 [kJ/mol]
      Est. Disp22 (T)              -0.79492927 [mEh]      -0.49882565 [kcal/mol]      -2.08708651 [kJ/mol]
      Exch-Disp20                   0.09038054 [mEh]       0.05671465 [kcal/mol]       0.23729408 [kJ/mol]

  Total HF                          0.04424508 [mEh]       0.02776421 [kcal/mol]       0.11616544 [kJ/mol]
  Total SAPT0                      -3.81093782 [mEh]      -2.39139958 [kcal/mol]     -10.00561586 [kJ/mol]
  Total SAPT2                      -3.77614035 [mEh]      -2.36956384 [kcal/mol]      -9.91425511 [kJ/mol]
  Total SAPT2+                     -3.77856922 [mEh]      -2.37108798 [kcal/mol]      -9.92063213 [kJ/mol]

  Special recipe for scaled SAPT0 (see Manual):
    Electrostatics sSAPT0          -0.23575579 [mEh]      -0.14793899 [kcal/mol]      -0.61897675 [kJ/mol]
    Exchange sSAPT0                 0.47880524 [mEh]       0.30045482 [kcal/mol]       1.25710297 [kJ/mol]
    Induction sSAPT0               -0.19879209 [mEh]      -0.12474392 [kcal/mol]      -0.52192857 [kJ/mol]
    Dispersion sSAPT0              -3.85517123 [mEh]      -2.41915647 [kcal/mol]     -10.12175068 [kJ/mol]
  Total sSAPT0                     -3.81091388 [mEh]      -2.39138457 [kcal/mol]     -10.00555302 [kJ/mol]
  --------------------------------------------------------------------------------------------------------

*** Psi4 exiting successfully. Buy a developer a beer!
