                               Psi4 1.4a2.dev224

  ==> Input File <==

--------------------------------------------------------------------------
#Generated by lconvert.py for sapt job

memory 50 GB

molecule  {
0 1
  N       0.195730   -0.844690    0.823850
  H       0.450400   -1.796750    1.049770
  C      -1.179050   -0.573680    0.759480
  O      -1.993650   -1.456260    0.966900
  C      -1.476710    0.811160    0.437560
  H      -2.506360    1.115650    0.363900
  C      -0.468110    1.682960    0.234890
  H      -0.638430    2.721640   -0.006160
  N       0.845630    1.305990    0.326830
  H       1.589690    1.968880    0.185960
  C       1.254260    0.019460    0.636240
  O       2.422300   -0.301720    0.731880
--
0 1
  C       1.138520   -0.908080    7.053170
  H       1.592380   -1.000140    6.065190
  H       1.683030   -1.572060    7.722370
  C       1.192840    0.557870    7.486110
  H       2.151130    1.030770    7.275380
  H       1.004720    0.639510    8.559330
  C       0.025490    1.170680    6.715330
  H       0.299790    1.259470    5.661860
  H      -0.258930    2.161830    7.066970
  C      -1.091460    0.133110    6.886360
  H      -1.817000    0.156730    6.074990
  H      -1.635550    0.337810    7.808610
  C      -0.368420   -1.233440    6.990020
  H      -0.611090   -1.877590    6.146660
  H      -0.683530   -1.760840    7.889110
units angstrom
no_reorient
symmetry c1
}

set {
scf_type DF
basis aug-cc-pvtz
freeze_core True
guess SAD
}
energy('sapt2+')
--------------------------------------------------------------------------

  //              Dimer HF             //
    Molecular point group: c1
  Charge       = 0
  Multiplicity = 1
  Basis Set: AUG-CC-PVTZ
    Blend: AUG-CC-PVTZ
  Basis Set: (AUG-CC-PVTZ AUX)
    Blend: AUG-CC-PVTZ-JKFIT
  @DF-RHF Final Energy:  -607.85476780936960
    Total Energy =                       -607.8547678093696049
  //            Monomer A HF           //
    Molecular point group: c1
  Multiplicity = 1
  Basis Set: AUG-CC-PVTZ
    Blend: AUG-CC-PVTZ
  Basis Set: (AUG-CC-PVTZ AUX)
    Blend: AUG-CC-PVTZ-JKFIT
  @DF-RHF Final Energy:  -412.62460990250861
    Total Energy =                       -412.6246099025086096
  //            Monomer B HF           //
    Molecular point group: c1

    Geometry (in Angstrom), charge = 0, multiplicity = 1:

       Center              X                  Y                   Z               Mass
    ------------   -----------------  -----------------  -----------------  -----------------
      Gh(N)           0.138664819692    -0.853875635858    -2.262827834557    14.003074004430
      Gh(H)           0.393334819692    -1.805935635858    -2.036907834557     1.007825032230
      Gh(C)          -1.236115180308    -0.582865635858    -2.327197834557    12.000000000000
      Gh(O)          -2.050715180308    -1.465445635858    -2.119777834557    15.994914619570
      Gh(C)          -1.533775180308     0.801974364142    -2.649117834557    12.000000000000
      Gh(H)          -2.563425180308     1.106464364142    -2.722777834557     1.007825032230
      Gh(C)          -0.525175180308     1.673774364142    -2.851787834557    12.000000000000
      Gh(H)          -0.695495180308     2.712454364142    -3.092837834557     1.007825032230
      Gh(N)           0.788564819692     1.296804364142    -2.759847834557    14.003074004430
      Gh(H)           1.532624819692     1.959694364142    -2.900717834557     1.007825032230
      Gh(C)           1.197194819692     0.010274364142    -2.450437834557    12.000000000000
      Gh(O)           2.365234819692    -0.310905635858    -2.354797834557    15.994914619570
         C            1.081454819692    -0.917265635858     3.966492165443    12.000000000000
         H            1.535314819692    -1.009325635858     2.978512165443     1.007825032230
         H            1.625964819692    -1.581245635858     4.635692165443     1.007825032230
         C            1.135774819692     0.548684364142     4.399432165443    12.000000000000
         H            2.094064819692     1.021584364142     4.188702165443     1.007825032230
         H            0.947654819692     0.630324364142     5.472652165443     1.007825032230
         C           -0.031575180308     1.161494364142     3.628652165443    12.000000000000
         H            0.242724819692     1.250284364142     2.575182165443     1.007825032230
         H           -0.315995180308     2.152644364142     3.980292165443     1.007825032230
         C           -1.148525180308     0.123924364142     3.799682165443    12.000000000000
         H           -1.874065180308     0.147544364142     2.988312165443     1.007825032230
         H           -1.692615180308     0.328624364142     4.721932165443     1.007825032230
         C           -0.425485180308    -1.242625635858     3.903342165443    12.000000000000
         H           -0.668155180308    -1.886775635858     3.059982165443     1.007825032230
         H           -0.740595180308    -1.770025635858     4.802432165443     1.007825032230

  Charge       = 0
  Multiplicity = 1
  Basis Set: AUG-CC-PVTZ
    Blend: AUG-CC-PVTZ
  Basis Set: (AUG-CC-PVTZ AUX)
    Blend: AUG-CC-PVTZ-JKFIT

    Orbital Energies [Eh]
    ---------------------

    Doubly Occupied:

       1A    -11.210504     2A    -11.210104     3A    -11.210099
       4A    -11.209485     5A    -11.209352     6A     -1.116059
       7A     -0.956543     8A     -0.955963     9A     -0.776682
      10A     -0.767342    11A     -0.649861    12A     -0.644577
      13A     -0.569559    14A     -0.567611    15A     -0.475235
      16A     -0.474457    17A     -0.463582    18A     -0.459997
      19A     -0.459452    20A     -0.448561

  @DF-RHF Final Energy:  -195.23012098047440

   => Energetics <=

    Nuclear Repulsion Energy =            188.3371542134710808
    One-Electron Energy =                -635.4645019311682290
    Two-Electron Energy =                 251.8972267372227520
    Total Energy =                       -195.2301209804743962

  Dipole Moment: [D]
     X:     0.0111      Y:     0.0106      Z:     0.0036     Total:     0.0158

    SAPT Results
  --------------------------------------------------------------------------------------------------------
    Electrostatics                 -0.02328287 [mEh]      -0.01461022 [kcal/mol]      -0.06112918 [kJ/mol]
      Elst10,r                     -0.02087061 [mEh]      -0.01309651 [kcal/mol]      -0.05479578 [kJ/mol]
      Elst12,r                     -0.00241226 [mEh]      -0.00151372 [kcal/mol]      -0.00633340 [kJ/mol]

    Exchange                        0.00129293 [mEh]       0.00081133 [kcal/mol]       0.00339459 [kJ/mol]
      Exch10                        0.00102715 [mEh]       0.00064454 [kcal/mol]       0.00269677 [kJ/mol]
      Exch10(S^2)                   0.00102715 [mEh]       0.00064454 [kcal/mol]       0.00269677 [kJ/mol]
      Exch11(S^2)                  -0.00003686 [mEh]      -0.00002313 [kcal/mol]      -0.00009677 [kJ/mol]
      Exch12(S^2)                   0.00030264 [mEh]       0.00018991 [kcal/mol]       0.00079458 [kJ/mol]

    Induction                      -0.01190551 [mEh]      -0.00747082 [kcal/mol]      -0.03125793 [kJ/mol]
      Ind20,r                      -0.01683715 [mEh]      -0.01056547 [kcal/mol]      -0.04420594 [kJ/mol]
      Ind22                         0.00523214 [mEh]       0.00328322 [kcal/mol]       0.01373698 [kJ/mol]
      Exch-Ind20,r                  0.00017613 [mEh]       0.00011052 [kcal/mol]       0.00046242 [kJ/mol]
      Exch-Ind22                   -0.00005473 [mEh]      -0.00003434 [kcal/mol]      -0.00014370 [kJ/mol]
      delta HF,r (2)               -0.00042190 [mEh]      -0.00026474 [kcal/mol]      -0.00110769 [kJ/mol]

    Dispersion                     -0.48831617 [mEh]      -0.30642302 [kcal/mol]      -1.28207392 [kJ/mol]
      Disp20                       -0.50903766 [mEh]      -0.31942595 [kcal/mol]      -1.33647819 [kJ/mol]
      Disp21                        0.12973018 [mEh]       0.08140692 [kcal/mol]       0.34060655 [kJ/mol]
      Disp22 (SDQ)                 -0.00212534 [mEh]      -0.00133367 [kcal/mol]      -0.00558009 [kJ/mol]
      Disp22 (T)                   -0.10503984 [mEh]      -0.06591349 [kcal/mol]      -0.27578206 [kJ/mol]
      Est. Disp22 (T)              -0.10721555 [mEh]      -0.06727878 [kcal/mol]      -0.28149440 [kJ/mol]
      Exch-Disp20                   0.00033220 [mEh]       0.00020846 [kcal/mol]       0.00087220 [kJ/mol]

  Total HF                         -0.03692639 [mEh]      -0.02317166 [kcal/mol]      -0.09695021 [kJ/mol]
  Total SAPT0                      -0.54563184 [mEh]      -0.34238915 [kcal/mol]      -1.43255620 [kJ/mol]
  Total SAPT2                      -0.54260091 [mEh]      -0.34048721 [kcal/mol]      -1.42459850 [kJ/mol]
  Total SAPT2+                     -0.52221163 [mEh]      -0.32769274 [kcal/mol]      -1.37106644 [kJ/mol]

  Special recipe for scaled SAPT0 (see Manual):
    Electrostatics sSAPT0          -0.02087061 [mEh]      -0.01309651 [kcal/mol]      -0.05479578 [kJ/mol]
    Exchange sSAPT0                 0.00102715 [mEh]       0.00064454 [kcal/mol]       0.00269677 [kJ/mol]
    Induction sSAPT0               -0.01708292 [mEh]      -0.01071970 [kcal/mol]      -0.04485121 [kJ/mol]
    Dispersion sSAPT0              -0.50870545 [mEh]      -0.31921749 [kcal/mol]      -1.33560598 [kJ/mol]
  Total sSAPT0                     -0.54563184 [mEh]      -0.34238915 [kcal/mol]      -1.43255620 [kJ/mol]
  --------------------------------------------------------------------------------------------------------

*** Psi4 exiting successfully. Buy a developer a beer!
