                               Psi4 1.4a2.dev224

  ==> Input File <==

--------------------------------------------------------------------------
#Generated by lconvert.py for sapt job

memory 50 GB

molecule  {
0 1
  N       0.195730   -0.844690    0.823850
  H       0.450400   -1.796750    1.049770
  C      -1.179050   -0.573680    0.759480
  O      -1.993650   -1.456260    0.966900
  C      -1.476710    0.811160    0.437560
  H      -2.506360    1.115650    0.363900
  C      -0.468110    1.682960    0.234890
  H      -0.638430    2.721640   -0.006160
  N       0.845630    1.305990    0.326830
  H       1.589690    1.968880    0.185960
  C       1.254260    0.019460    0.636240
  O       2.422300   -0.301720    0.731880
--
0 1
  C       1.111660   -0.893440    6.181300
  H       1.565510   -0.985500    5.193310
  H       1.656160   -1.557420    6.850490
  C       1.165970    0.572510    6.614230
  H       2.124260    1.045410    6.403510
  H       0.977850    0.654150    7.687450
  C      -0.001380    1.185320    5.843460
  H       0.272920    1.274110    4.789990
  H      -0.285800    2.176470    6.195090
  C      -1.118330    0.147750    6.014490
  H      -1.843870    0.171370    5.203120
  H      -1.662410    0.352450    6.936740
  C      -0.395290   -1.218800    6.118150
  H      -0.637960   -1.862950    5.274780
  H      -0.710400   -1.746200    7.017230
units angstrom
no_reorient
symmetry c1
}

set {
scf_type DF
basis aug-cc-pvtz
freeze_core True
guess SAD
}
energy('sapt2+')
--------------------------------------------------------------------------

  //              Dimer HF             //
    Molecular point group: c1
  Charge       = 0
  Multiplicity = 1
  Basis Set: AUG-CC-PVTZ
    Blend: AUG-CC-PVTZ
  Basis Set: (AUG-CC-PVTZ AUX)
    Blend: AUG-CC-PVTZ-JKFIT
  @DF-RHF Final Energy:  -607.85483611075017
    Total Energy =                       -607.8548361107501705
  //            Monomer A HF           //
    Molecular point group: c1
  Multiplicity = 1
  Basis Set: AUG-CC-PVTZ
    Blend: AUG-CC-PVTZ
  Basis Set: (AUG-CC-PVTZ AUX)
    Blend: AUG-CC-PVTZ-JKFIT
  @DF-RHF Final Energy:  -412.62465937387020
    Total Energy =                       -412.6246593738702018
  //            Monomer B HF           //
    Molecular point group: c1

    Geometry (in Angstrom), charge = 0, multiplicity = 1:

       Center              X                  Y                   Z               Mass
    ------------   -----------------  -----------------  -----------------  -----------------
      Gh(N)           0.149004277982    -0.859509432908    -1.927311909533    14.003074004430
      Gh(H)           0.403674277982    -1.811569432908    -1.701391909533     1.007825032230
      Gh(C)          -1.225775722018    -0.588499432908    -1.991681909533    12.000000000000
      Gh(O)          -2.040375722018    -1.471079432908    -1.784261909533    15.994914619570
      Gh(C)          -1.523435722018     0.796340567092    -2.313601909533    12.000000000000
      Gh(H)          -2.553085722018     1.100830567092    -2.387261909533     1.007825032230
      Gh(C)          -0.514835722018     1.668140567092    -2.516271909533    12.000000000000
      Gh(H)          -0.685155722018     2.706820567092    -2.757321909533     1.007825032230
      Gh(N)           0.798904277982     1.291170567092    -2.424331909533    14.003074004430
      Gh(H)           1.542964277982     1.954060567092    -2.565201909533     1.007825032230
      Gh(C)           1.207534277982     0.004640567092    -2.114921909533    12.000000000000
      Gh(O)           2.375574277982    -0.316539432908    -2.019281909533    15.994914619570
         C            1.064934277982    -0.908259432908     3.430138090467    12.000000000000
         H            1.518784277982    -1.000319432908     2.442148090467     1.007825032230
         H            1.609434277982    -1.572239432908     4.099328090467     1.007825032230
         C            1.119244277982     0.557690567092     3.863068090467    12.000000000000
         H            2.077534277982     1.030590567092     3.652348090467     1.007825032230
         H            0.931124277982     0.639330567092     4.936288090467     1.007825032230
         C           -0.048105722018     1.170500567092     3.092298090467    12.000000000000
         H            0.226194277982     1.259290567092     2.038828090467     1.007825032230
         H           -0.332525722018     2.161650567092     3.443928090467     1.007825032230
         C           -1.165055722018     0.132930567092     3.263328090467    12.000000000000
         H           -1.890595722018     0.156550567092     2.451958090467     1.007825032230
         H           -1.709135722018     0.337630567092     4.185578090467     1.007825032230
         C           -0.442015722018    -1.233619432908     3.366988090467    12.000000000000
         H           -0.684685722018    -1.877769432908     2.523618090467     1.007825032230
         H           -0.757125722018    -1.761019432908     4.266068090467     1.007825032230

  Charge       = 0
  Multiplicity = 1
  Basis Set: AUG-CC-PVTZ
    Blend: AUG-CC-PVTZ
  Basis Set: (AUG-CC-PVTZ AUX)
    Blend: AUG-CC-PVTZ-JKFIT

    Orbital Energies [Eh]
    ---------------------

    Doubly Occupied:

       1A    -11.210505     2A    -11.210105     3A    -11.210100
       4A    -11.209486     5A    -11.209353     6A     -1.116059
       7A     -0.956544     8A     -0.955963     9A     -0.776682
      10A     -0.767343    11A     -0.649862    12A     -0.644578
      13A     -0.569560    14A     -0.567611    15A     -0.475237
      16A     -0.474458    17A     -0.463581    18A     -0.459995
      19A     -0.459453    20A     -0.448562

  @DF-RHF Final Energy:  -195.23012704728990

   => Energetics <=

    Nuclear Repulsion Energy =            188.3371886468695493
    One-Electron Energy =                -635.4645588620994658
    Two-Electron Energy =                 251.8972431679400188
    Total Energy =                       -195.2301270472898977

  Dipole Moment: [D]
     X:     0.0111      Y:     0.0106      Z:     0.0036     Total:     0.0157

    SAPT Results
  --------------------------------------------------------------------------------------------------------
    Electrostatics                 -0.04329594 [mEh]      -0.02716861 [kcal/mol]      -0.11367347 [kJ/mol]
      Elst10,r                     -0.03168934 [mEh]      -0.01988536 [kcal/mol]      -0.08320035 [kJ/mol]
      Elst12,r                     -0.01160660 [mEh]      -0.00728325 [kcal/mol]      -0.03047312 [kJ/mol]

    Exchange                        0.02642674 [mEh]       0.01658303 [kcal/mol]       0.06938340 [kJ/mol]
      Exch10                        0.02155078 [mEh]       0.01352332 [kcal/mol]       0.05658157 [kJ/mol]
      Exch10(S^2)                   0.02155070 [mEh]       0.01352327 [kcal/mol]       0.05658137 [kJ/mol]
      Exch11(S^2)                  -0.00035318 [mEh]      -0.00022163 [kcal/mol]      -0.00092728 [kJ/mol]
      Exch12(S^2)                   0.00522914 [mEh]       0.00328134 [kcal/mol]       0.01372911 [kJ/mol]

    Induction                      -0.02840788 [mEh]      -0.01782621 [kcal/mol]      -0.07458487 [kJ/mol]
      Ind20,r                      -0.04220626 [mEh]      -0.02648483 [kcal/mol]      -0.11081252 [kJ/mol]
      Ind22                         0.01231035 [mEh]       0.00772486 [kcal/mol]       0.03232082 [kJ/mol]
      Exch-Ind20,r                  0.00400174 [mEh]       0.00251113 [kcal/mol]       0.01050657 [kJ/mol]
      Exch-Ind22                   -0.00116719 [mEh]      -0.00073242 [kcal/mol]      -0.00306446 [kJ/mol]
      delta HF,r (2)               -0.00134652 [mEh]      -0.00084495 [kcal/mol]      -0.00353528 [kJ/mol]

    Dispersion                     -1.20339928 [mEh]      -0.75514445 [kcal/mol]      -3.15952437 [kJ/mol]
      Disp20                       -1.23810995 [mEh]      -0.77692572 [kcal/mol]      -3.25065722 [kJ/mol]
      Disp21                        0.29363041 [mEh]       0.18425587 [kcal/mol]       0.77092655 [kJ/mol]
      Disp22 (SDQ)                 -0.00571497 [mEh]      -0.00358620 [kcal/mol]      -0.01500466 [kJ/mol]
      Disp22 (T)                   -0.25050934 [mEh]      -0.15719698 [kcal/mol]      -0.65771218 [kJ/mol]
      Est. Disp22 (T)              -0.25871867 [mEh]      -0.16234841 [kcal/mol]      -0.67926577 [kJ/mol]
      Exch-Disp20                   0.00551389 [mEh]       0.00346002 [kcal/mol]       0.01447673 [kJ/mol]

  Total HF                         -0.04968959 [mEh]      -0.03118069 [kcal/mol]      -0.13046000 [kJ/mol]
  Total SAPT0                      -1.28228564 [mEh]      -0.80464639 [kcal/mol]      -3.36664049 [kJ/mol]
  Total SAPT2                      -1.27787312 [mEh]      -0.80187749 [kcal/mol]      -3.35505542 [kJ/mol]
  Total SAPT2+                     -1.24867635 [mEh]      -0.78355624 [kcal/mol]      -3.27839931 [kJ/mol]

  Special recipe for scaled SAPT0 (see Manual):
    Electrostatics sSAPT0          -0.03168934 [mEh]      -0.01988536 [kcal/mol]      -0.08320035 [kJ/mol]
    Exchange sSAPT0                 0.02155078 [mEh]       0.01352332 [kcal/mol]       0.05658157 [kJ/mol]
    Induction sSAPT0               -0.03955099 [mEh]      -0.02481862 [kcal/mol]      -0.10384111 [kJ/mol]
    Dispersion sSAPT0              -1.23259599 [mEh]      -0.77346566 [kcal/mol]      -3.23618033 [kJ/mol]
  Total sSAPT0                     -1.28228554 [mEh]      -0.80464632 [kcal/mol]      -3.36664021 [kJ/mol]
  --------------------------------------------------------------------------------------------------------

*** Psi4 exiting successfully. Buy a developer a beer!
