                               Psi4 1.4a2.dev224

  ==> Input File <==

--------------------------------------------------------------------------
#Generated by lconvert.py for sapt job

memory 50 GB

molecule  {
0 1
  N       0.195730   -0.844690    0.823850
  H       0.450400   -1.796750    1.049770
  C      -1.179050   -0.573680    0.759480
  O      -1.993650   -1.456260    0.966900
  C      -1.476710    0.811160    0.437560
  H      -2.506360    1.115650    0.363900
  C      -0.468110    1.682960    0.234890
  H      -0.638430    2.721640   -0.006160
  N       0.845630    1.305990    0.326830
  H       1.589690    1.968880    0.185960
  C       1.254260    0.019460    0.636240
  O       2.422300   -0.301720    0.731880
--
0 1
  C       1.084790   -0.878800    5.309420
  H       1.538640   -0.970860    4.321440
  H       1.629290   -1.542780    5.978620
  C       1.139100    0.587150    5.742360
  H       2.097390    1.060050    5.531630
  H       0.950980    0.668790    6.815580
  C      -0.028250    1.199960    4.971590
  H       0.246050    1.288750    3.918110
  H      -0.312670    2.191110    5.323220
  C      -1.145190    0.162390    5.142610
  H      -1.870740    0.186010    4.331240
  H      -1.689280    0.367090    6.064860
  C      -0.422160   -1.204160    5.246270
  H      -0.664820   -1.848310    4.402910
  H      -0.737260   -1.731560    6.145360
units angstrom
no_reorient
symmetry c1
}

set {
scf_type DF
basis aug-cc-pvtz
freeze_core True
guess SAD
}
energy('sapt2+')
--------------------------------------------------------------------------

  //              Dimer HF             //
    Molecular point group: c1
  Charge       = 0
  Multiplicity = 1
  Basis Set: AUG-CC-PVTZ
    Blend: AUG-CC-PVTZ
  Basis Set: (AUG-CC-PVTZ AUX)
    Blend: AUG-CC-PVTZ-JKFIT
  @DF-RHF Final Energy:  -607.85476813877074
    Total Energy =                       -607.8547681387707371
  //            Monomer A HF           //
    Molecular point group: c1
  Multiplicity = 1
  Basis Set: AUG-CC-PVTZ
    Blend: AUG-CC-PVTZ
  Basis Set: (AUG-CC-PVTZ AUX)
    Blend: AUG-CC-PVTZ-JKFIT
  @DF-RHF Final Energy:  -412.62475931570094
    Total Energy =                       -412.6247593157009419
  //            Monomer B HF           //
    Molecular point group: c1

    Geometry (in Angstrom), charge = 0, multiplicity = 1:

       Center              X                  Y                   Z               Mass
    ------------   -----------------  -----------------  -----------------  -----------------
      Gh(N)           0.159343680928    -0.865143229958    -1.591794777278    14.003074004430
      Gh(H)           0.414013680928    -1.817203229958    -1.365874777278     1.007825032230
      Gh(C)          -1.215436319072    -0.594133229958    -1.656164777278    12.000000000000
      Gh(O)          -2.030036319072    -1.476713229958    -1.448744777278    15.994914619570
      Gh(C)          -1.513096319072     0.790706770042    -1.978084777278    12.000000000000
      Gh(H)          -2.542746319072     1.095196770042    -2.051744777278     1.007825032230
      Gh(C)          -0.504496319072     1.662506770042    -2.180754777278    12.000000000000
      Gh(H)          -0.674816319072     2.701186770042    -2.421804777278     1.007825032230
      Gh(N)           0.809243680928     1.285536770042    -2.088814777278    14.003074004430
      Gh(H)           1.553303680928     1.948426770042    -2.229684777278     1.007825032230
      Gh(C)           1.217873680928    -0.000993229958    -1.779404777278    12.000000000000
      Gh(O)           2.385913680928    -0.322173229958    -1.683764777278    15.994914619570
         C            1.048403680928    -0.899253229958     2.893775222722    12.000000000000
         H            1.502253680928    -0.991313229958     1.905795222722     1.007825032230
         H            1.592903680928    -1.563233229958     3.562975222722     1.007825032230
         C            1.102713680928     0.566696770042     3.326715222722    12.000000000000
         H            2.061003680928     1.039596770042     3.115985222722     1.007825032230
         H            0.914593680928     0.648336770042     4.399935222722     1.007825032230
         C           -0.064636319072     1.179506770042     2.555945222722    12.000000000000
         H            0.209663680928     1.268296770042     1.502465222722     1.007825032230
         H           -0.349056319072     2.170656770042     2.907575222722     1.007825032230
         C           -1.181576319072     0.141936770042     2.726965222722    12.000000000000
         H           -1.907126319072     0.165556770042     1.915595222722     1.007825032230
         H           -1.725666319072     0.346636770042     3.649215222722     1.007825032230
         C           -0.458546319072    -1.224613229958     2.830625222722    12.000000000000
         H           -0.701206319072    -1.868763229958     1.987265222722     1.007825032230
         H           -0.773646319072    -1.752013229958     3.729715222722     1.007825032230

  Charge       = 0
  Multiplicity = 1
  Basis Set: AUG-CC-PVTZ
    Blend: AUG-CC-PVTZ
  Basis Set: (AUG-CC-PVTZ AUX)
    Blend: AUG-CC-PVTZ-JKFIT

    Orbital Energies [Eh]
    ---------------------

    Doubly Occupied:

       1A    -11.210508     2A    -11.210109     3A    -11.210104
       4A    -11.209489     5A    -11.209358     6A     -1.116061
       7A     -0.956544     8A     -0.955964     9A     -0.776682
      10A     -0.767343    11A     -0.649862    12A     -0.644580
      13A     -0.569560    14A     -0.567611    15A     -0.475237
      16A     -0.474458    17A     -0.463581    18A     -0.459995
      19A     -0.459453    20A     -0.448561

  @DF-RHF Final Energy:  -195.23014161577402

   => Energetics <=

    Nuclear Repulsion Energy =            188.3373013098952526
    One-Electron Energy =                -635.4647688387670996
    Two-Electron Energy =                 251.8973259130978590
    Total Energy =                       -195.2301416157740164

  Dipole Moment: [D]
     X:     0.0111      Y:     0.0106      Z:     0.0037     Total:     0.0158

    SAPT Results
  --------------------------------------------------------------------------------------------------------
    Electrostatics                 -0.24623558 [mEh]      -0.15451516 [kcal/mol]      -0.64649142 [kJ/mol]
      Elst10,r                     -0.17388054 [mEh]      -0.10911169 [kcal/mol]      -0.45652330 [kJ/mol]
      Elst12,r                     -0.07235504 [mEh]      -0.04540347 [kcal/mol]      -0.18996812 [kJ/mol]

    Exchange                        0.51245195 [mEh]       0.32156845 [kcal/mol]       1.34544240 [kJ/mol]
      Exch10                        0.43739392 [mEh]       0.27446883 [kcal/mol]       1.14837759 [kJ/mol]
      Exch10(S^2)                   0.43736099 [mEh]       0.27444817 [kcal/mol]       1.14829113 [kJ/mol]
      Exch11(S^2)                   0.00174740 [mEh]       0.00109651 [kcal/mol]       0.00458780 [kJ/mol]
      Exch12(S^2)                   0.07331062 [mEh]       0.04600311 [kcal/mol]       0.19247701 [kJ/mol]

    Induction                      -0.11937221 [mEh]      -0.07490719 [kcal/mol]      -0.31341170 [kJ/mol]
      Ind20,r                      -0.20479719 [mEh]      -0.12851218 [kcal/mol]      -0.53769496 [kJ/mol]
      Ind22                         0.02090425 [mEh]       0.01311762 [kcal/mol]       0.05488411 [kJ/mol]
      Exch-Ind20,r                  0.09361724 [mEh]       0.05874570 [kcal/mol]       0.24579202 [kJ/mol]
      Exch-Ind22                   -0.00955579 [mEh]      -0.00599635 [kcal/mol]      -0.02508871 [kJ/mol]
      delta HF,r (2)               -0.01954072 [mEh]      -0.01226199 [kcal/mol]      -0.05130415 [kJ/mol]

    Dispersion                     -3.51235579 [mEh]      -2.20403653 [kcal/mol]      -9.22168886 [kJ/mol]
      Disp20                       -3.59563804 [mEh]      -2.25629693 [kcal/mol]      -9.44034636 [kJ/mol]
      Disp21                        0.75174363 [mEh]       0.47172625 [kcal/mol]       1.97370264 [kJ/mol]
      Disp22 (SDQ)                 -0.01501557 [mEh]      -0.00942241 [kcal/mol]      -0.03942337 [kJ/mol]
      Disp22 (T)                   -0.69838981 [mEh]      -0.43824622 [kcal/mol]      -1.83362220 [kJ/mol]
      Est. Disp22 (T)              -0.73788971 [mEh]      -0.46303278 [kcal/mol]      -1.93732916 [kJ/mol]
      Exch-Disp20                   0.08444389 [mEh]       0.05298934 [kcal/mol]       0.22170739 [kJ/mol]

  Total HF                          0.13279270 [mEh]       0.08332868 [kcal/mol]       0.34864720 [kJ/mol]
  Total SAPT0                      -3.37840145 [mEh]      -2.11997891 [kcal/mol]      -8.86999177 [kJ/mol]
  Total SAPT2                      -3.36434999 [mEh]      -2.11116149 [kcal/mol]      -8.83309969 [kJ/mol]
  Total SAPT2+                     -3.36551164 [mEh]      -2.11189044 [kcal/mol]      -8.83614958 [kJ/mol]

  Special recipe for scaled SAPT0 (see Manual):
    Electrostatics sSAPT0          -0.17388054 [mEh]      -0.10911169 [kcal/mol]      -0.45652330 [kJ/mol]
    Exchange sSAPT0                 0.43739392 [mEh]       0.27446883 [kcal/mol]       1.14837759 [kJ/mol]
    Induction sSAPT0               -0.13069953 [mEh]      -0.08201519 [kcal/mol]      -0.34315157 [kJ/mol]
    Dispersion sSAPT0              -3.51117507 [mEh]      -2.20329562 [kcal/mol]      -9.21858888 [kJ/mol]
  Total sSAPT0                     -3.37836122 [mEh]      -2.11995367 [kcal/mol]      -8.86988616 [kJ/mol]
  --------------------------------------------------------------------------------------------------------

*** Psi4 exiting successfully. Buy a developer a beer!
