                               Psi4 1.4a2.dev224

  ==> Input File <==

--------------------------------------------------------------------------
#Generated by lconvert.py for sapt job

memory 50 GB

molecule  {
0 1
  N       0.626080   -0.850910    0.805920
  H       0.409190   -1.811500    1.034400
  C      -0.432460   -0.087340    0.294660
  O      -1.530770   -0.588400    0.123590
  C      -0.066880    1.291270    0.019640
  H      -0.809740    1.951810   -0.392840
  C       1.183540    1.717930    0.290530
  H       1.501850    2.733870    0.109830
  N       2.134130    0.886600    0.819080
  H       3.055340    1.223900    1.043430
  C       1.902780   -0.443180    1.128310
  O       2.743810   -1.163920    1.628590
--
0 1
  C      -1.514600   -0.082500    7.226700
  C      -2.831340    0.658790    7.441570
  H      -3.538410    0.040590    7.996430
  H      -2.671840    1.578980    8.005760
  H      -3.289050    0.920290    6.486420
  C      -0.899160   -0.435930    8.577970
  H       0.044000   -0.968310    8.447190
  H      -0.702140    0.463810    9.162780
  H      -1.570450   -1.073670    9.154710
  C      -0.549470    0.810980    6.450910
  H       0.399100    0.298390    6.280550
  H      -0.344180    1.729120    7.004330
  H      -0.971870    1.089470    5.483440
  C      -1.775910   -1.362530    6.436330
  H      -2.239650   -1.140700    5.473710
  H      -0.843340   -1.900930    6.256690
  H      -2.446420   -2.024340    6.986520
units angstrom
no_reorient
symmetry c1
}

set {
scf_type DF
basis aug-cc-pvtz
freeze_core True
guess SAD
}
energy('sapt2+')
--------------------------------------------------------------------------

  //              Dimer HF             //
    Molecular point group: c1
  Charge       = 0
  Multiplicity = 1
  Basis Set: AUG-CC-PVTZ
    Blend: AUG-CC-PVTZ
  Basis Set: (AUG-CC-PVTZ AUX)
    Blend: AUG-CC-PVTZ-JKFIT
  @DF-RHF Final Energy:  -609.02914934255875
    Total Energy =                       -609.0291493425587532
  //            Monomer A HF           //
    Molecular point group: c1
  Multiplicity = 1
  Basis Set: AUG-CC-PVTZ
    Blend: AUG-CC-PVTZ
  Basis Set: (AUG-CC-PVTZ AUX)
    Blend: AUG-CC-PVTZ-JKFIT
  @DF-RHF Final Energy:  -412.62456638167436
    Total Energy =                       -412.6245663816743559
  //            Monomer B HF           //
    Molecular point group: c1

    Geometry (in Angstrom), charge = 0, multiplicity = 1:

       Center              X                  Y                   Z               Mass
    ------------   -----------------  -----------------  -----------------  -----------------
      Gh(N)           0.712302575344    -0.853172438704    -2.422424171442    14.003074004430
      Gh(H)           0.495412575344    -1.813762438704    -2.193944171442     1.007825032230
      Gh(C)          -0.346237424656    -0.089602438704    -2.933684171442    12.000000000000
      Gh(O)          -1.444547424656    -0.590662438704    -3.104754171442    15.994914619570
      Gh(C)           0.019342575344     1.289007561296    -3.208704171442    12.000000000000
      Gh(H)          -0.723517424656     1.949547561296    -3.621184171442     1.007825032230
      Gh(C)           1.269762575344     1.715667561296    -2.937814171442    12.000000000000
      Gh(H)           1.588072575344     2.731607561296    -3.118514171442     1.007825032230
      Gh(N)           2.220352575344     0.884337561296    -2.409264171442    14.003074004430
      Gh(H)           3.141562575344     1.221637561296    -2.184914171442     1.007825032230
      Gh(C)           1.989002575344    -0.445442438704    -2.100034171442    12.000000000000
      Gh(O)           2.830032575344    -1.166182438704    -1.599754171442    15.994914619570
         C           -1.428377424656    -0.084762438704     3.998355828558    12.000000000000
         C           -2.745117424656     0.656527561296     4.213225828558    12.000000000000
         H           -3.452187424656     0.038327561296     4.768085828558     1.007825032230
         H           -2.585617424656     1.576717561296     4.777415828558     1.007825032230
         H           -3.202827424656     0.918027561296     3.258075828558     1.007825032230
         C           -0.812937424656    -0.438192438704     5.349625828558    12.000000000000
         H            0.130222575344    -0.970572438704     5.218845828558     1.007825032230
         H           -0.615917424656     0.461547561296     5.934435828558     1.007825032230
         H           -1.484227424656    -1.075932438704     5.926365828558     1.007825032230
         C           -0.463247424656     0.808717561296     3.222565828558    12.000000000000
         H            0.485322575344     0.296127561296     3.052205828558     1.007825032230
         H           -0.257957424656     1.726857561296     3.775985828558     1.007825032230
         H           -0.885647424656     1.087207561296     2.255095828558     1.007825032230
         C           -1.689687424656    -1.364792438704     3.207985828558    12.000000000000
         H           -2.153427424656    -1.142962438704     2.245365828558     1.007825032230
         H           -0.757117424656    -1.903192438704     3.028345828558     1.007825032230
         H           -2.360197424656    -2.026602438704     3.758175828558     1.007825032230

  Charge       = 0
  Multiplicity = 1
  Basis Set: AUG-CC-PVTZ
    Blend: AUG-CC-PVTZ
  Basis Set: (AUG-CC-PVTZ AUX)
    Blend: AUG-CC-PVTZ-JKFIT

    Orbital Energies [Eh]
    ---------------------

    Doubly Occupied:

       1A    -11.226728     2A    -11.205802     3A    -11.205783
       4A    -11.205600     5A    -11.205573     6A     -1.106522
       7A     -0.928946     8A     -0.928718     9A     -0.928214
      10A     -0.729575    11A     -0.612261    12A     -0.611653
      13A     -0.611456    14A     -0.553523    15A     -0.552359
      16A     -0.509705    17A     -0.509432    18A     -0.508712
      19A     -0.452844    20A     -0.452208    21A     -0.451760

  @DF-RHF Final Energy:  -196.40447276570114

   => Energetics <=

    Nuclear Repulsion Energy =            199.3616929125058164
    One-Electron Energy =                -658.5376061206496843
    Two-Electron Energy =                 262.7714404424427244
    Total Energy =                       -196.4044727657011435

  Dipole Moment: [D]
     X:    -0.0042      Y:    -0.0005      Z:     0.0050     Total:     0.0066

    SAPT Results
  --------------------------------------------------------------------------------------------------------
    Electrostatics                 -0.08483566 [mEh]      -0.05323518 [kcal/mol]      -0.22273600 [kJ/mol]
      Elst10,r                     -0.09925092 [mEh]      -0.06228089 [kcal/mol]      -0.26058326 [kJ/mol]
      Elst12,r                      0.01441526 [mEh]       0.00904571 [kcal/mol]       0.03784727 [kJ/mol]

    Exchange                        0.00128086 [mEh]       0.00080375 [kcal/mol]       0.00336291 [kJ/mol]
      Exch10                        0.00099075 [mEh]       0.00062171 [kcal/mol]       0.00260122 [kJ/mol]
      Exch10(S^2)                   0.00099075 [mEh]       0.00062171 [kcal/mol]       0.00260122 [kJ/mol]
      Exch11(S^2)                  -0.00003233 [mEh]      -0.00002029 [kcal/mol]      -0.00008489 [kJ/mol]
      Exch12(S^2)                   0.00032244 [mEh]       0.00020234 [kcal/mol]       0.00084657 [kJ/mol]

    Induction                      -0.00822607 [mEh]      -0.00516193 [kcal/mol]      -0.02159753 [kJ/mol]
      Ind20,r                      -0.01212036 [mEh]      -0.00760564 [kcal/mol]      -0.03182201 [kJ/mol]
      Ind22                         0.00376822 [mEh]       0.00236459 [kcal/mol]       0.00989345 [kJ/mol]
      Exch-Ind20,r                  0.00019064 [mEh]       0.00011963 [kcal/mol]       0.00050052 [kJ/mol]
      Exch-Ind22                   -0.00005927 [mEh]      -0.00003719 [kcal/mol]      -0.00015561 [kJ/mol]
      delta HF,r (2)               -0.00000529 [mEh]      -0.00000332 [kcal/mol]      -0.00001388 [kJ/mol]

    Dispersion                     -0.41385624 [mEh]      -0.25969871 [kcal/mol]      -1.08657941 [kJ/mol]
      Disp20                       -0.42478611 [mEh]      -0.26655731 [kcal/mol]      -1.11527578 [kJ/mol]
      Disp21                        0.09527664 [mEh]       0.05978699 [kcal/mol]       0.25014878 [kJ/mol]
      Disp22 (SDQ)                  0.00463270 [mEh]       0.00290706 [kcal/mol]       0.01216314 [kJ/mol]
      Disp22 (T)                   -0.08744977 [mEh]      -0.05487556 [kcal/mol]      -0.22959934 [kJ/mol]
      Est. Disp22 (T)              -0.08928869 [mEh]      -0.05602950 [kcal/mol]      -0.23442742 [kJ/mol]
      Exch-Disp20                   0.00030922 [mEh]       0.00019404 [kcal/mol]       0.00081187 [kJ/mol]

  Total HF                         -0.11019518 [mEh]      -0.06914852 [kcal/mol]      -0.28931741 [kJ/mol]
  Total SAPT0                      -0.53467207 [mEh]      -0.33551179 [kcal/mol]      -1.40378133 [kJ/mol]
  Total SAPT2                      -0.51625775 [mEh]      -0.32395663 [kcal/mol]      -1.35543454 [kJ/mol]
  Total SAPT2+                     -0.50563710 [mEh]      -0.31729207 [kcal/mol]      -1.32755004 [kJ/mol]

  Special recipe for scaled SAPT0 (see Manual):
    Electrostatics sSAPT0          -0.09925092 [mEh]      -0.06228089 [kcal/mol]      -0.26058326 [kJ/mol]
    Exchange sSAPT0                 0.00099075 [mEh]       0.00062171 [kcal/mol]       0.00260122 [kJ/mol]
    Induction sSAPT0               -0.01193501 [mEh]      -0.00748933 [kcal/mol]      -0.03133538 [kJ/mol]
    Dispersion sSAPT0              -0.42447689 [mEh]      -0.26636327 [kcal/mol]      -1.11446391 [kJ/mol]
  Total sSAPT0                     -0.53467207 [mEh]      -0.33551179 [kcal/mol]      -1.40378133 [kJ/mol]
  --------------------------------------------------------------------------------------------------------

*** Psi4 exiting successfully. Buy a developer a beer!
