                               Psi4 1.4a2.dev224

  ==> Input File <==

--------------------------------------------------------------------------
#Generated by lconvert.py for sapt job

memory 50 GB

molecule  {
0 1
  N       0.626080   -0.850910    0.805920
  H       0.409190   -1.811500    1.034400
  C      -0.432460   -0.087340    0.294660
  O      -1.530770   -0.588400    0.123590
  C      -0.066880    1.291270    0.019640
  H      -0.809740    1.951810   -0.392840
  C       1.183540    1.717930    0.290530
  H       1.501850    2.733870    0.109830
  N       2.134130    0.886600    0.819080
  H       3.055340    1.223900    1.043430
  C       1.902780   -0.443180    1.128310
  O       2.743810   -1.163920    1.628590
--
0 1
  C      -1.224780   -0.065330    6.415120
  C      -2.541530    0.675960    6.629990
  H      -3.248600    0.057760    7.184850
  H      -2.382030    1.596150    7.194170
  H      -2.999240    0.937460    5.674830
  C      -0.609350   -0.418760    7.766390
  H       0.333820   -0.951140    7.635610
  H      -0.412320    0.480980    8.351200
  H      -1.280640   -1.056500    8.343130
  C      -0.259660    0.828150    5.639330
  H       0.688910    0.315560    5.468970
  H      -0.054370    1.746290    6.192750
  H      -0.682050    1.106640    4.671860
  C      -1.486100   -1.345360    5.624750
  H      -1.949840   -1.123530    4.662130
  H      -0.553520   -1.883760    5.445110
  H      -2.156610   -2.007180    6.174940
units angstrom
no_reorient
symmetry c1
}

set {
scf_type DF
basis aug-cc-pvtz
freeze_core True
guess SAD
}
energy('sapt2+')
--------------------------------------------------------------------------

  //              Dimer HF             //
    Molecular point group: c1
  Charge       = 0
  Multiplicity = 1
  Basis Set: AUG-CC-PVTZ
    Blend: AUG-CC-PVTZ
  Basis Set: (AUG-CC-PVTZ AUX)
    Blend: AUG-CC-PVTZ-JKFIT
  @DF-RHF Final Energy:  -609.02930266194653
    Total Energy =                       -609.0293026619465309
  //            Monomer A HF           //
    Molecular point group: c1
  Multiplicity = 1
  Basis Set: AUG-CC-PVTZ
    Blend: AUG-CC-PVTZ
  Basis Set: (AUG-CC-PVTZ AUX)
    Blend: AUG-CC-PVTZ-JKFIT
  @DF-RHF Final Energy:  -412.62461087659972
    Total Energy =                       -412.6246108765997178
  //            Monomer B HF           //
    Molecular point group: c1

    Geometry (in Angstrom), charge = 0, multiplicity = 1:

       Center              X                  Y                   Z               Mass
    ------------   -----------------  -----------------  -----------------  -----------------
      Gh(N)           0.598824626539    -0.859895414336    -2.104644388894    14.003074004430
      Gh(H)           0.381934626539    -1.820485414336    -1.876164388894     1.007825032230
      Gh(C)          -0.459715373461    -0.096325414336    -2.615904388894    12.000000000000
      Gh(O)          -1.558025373461    -0.597385414336    -2.786974388894    15.994914619570
      Gh(C)          -0.094135373461     1.282284585664    -2.890924388894    12.000000000000
      Gh(H)          -0.836995373461     1.942824585664    -3.303404388894     1.007825032230
      Gh(C)           1.156284626539     1.708944585664    -2.620034388894    12.000000000000
      Gh(H)           1.474594626539     2.724884585664    -2.800734388894     1.007825032230
      Gh(N)           2.106874626539     0.877614585664    -2.091484388894    14.003074004430
      Gh(H)           3.028084626539     1.214914585664    -1.867134388894     1.007825032230
      Gh(C)           1.875524626539    -0.452165414336    -1.782254388894    12.000000000000
      Gh(O)           2.716554626539    -1.172905414336    -1.281974388894    15.994914619570
         C           -1.252035373461    -0.074315414336     3.504555611106    12.000000000000
         C           -2.568785373461     0.666974585664     3.719425611106    12.000000000000
         H           -3.275855373461     0.048774585664     4.274285611106     1.007825032230
         H           -2.409285373461     1.587164585664     4.283605611106     1.007825032230
         H           -3.026495373461     0.928474585664     2.764265611106     1.007825032230
         C           -0.636605373461    -0.427745414336     4.855825611106    12.000000000000
         H            0.306564626539    -0.960125414336     4.725045611106     1.007825032230
         H           -0.439575373461     0.471994585664     5.440635611106     1.007825032230
         H           -1.307895373461    -1.065485414336     5.432565611106     1.007825032230
         C           -0.286915373461     0.819164585664     2.728765611106    12.000000000000
         H            0.661654626539     0.306574585664     2.558405611106     1.007825032230
         H           -0.081625373461     1.737304585664     3.282185611106     1.007825032230
         H           -0.709305373461     1.097654585664     1.761295611106     1.007825032230
         C           -1.513355373461    -1.354345414336     2.714185611106    12.000000000000
         H           -1.977095373461    -1.132515414336     1.751565611106     1.007825032230
         H           -0.580775373461    -1.892745414336     2.534545611106     1.007825032230
         H           -2.183865373461    -2.016165414336     3.264375611106     1.007825032230

  Charge       = 0
  Multiplicity = 1
  Basis Set: AUG-CC-PVTZ
    Blend: AUG-CC-PVTZ
  Basis Set: (AUG-CC-PVTZ AUX)
    Blend: AUG-CC-PVTZ-JKFIT

    Orbital Energies [Eh]
    ---------------------

    Doubly Occupied:

       1A    -11.226728     2A    -11.205805     3A    -11.205786
       4A    -11.205602     5A    -11.205575     6A     -1.106522
       7A     -0.928945     8A     -0.928717     9A     -0.928214
      10A     -0.729574    11A     -0.612261    12A     -0.611652
      13A     -0.611456    14A     -0.553523    15A     -0.552357
      16A     -0.509704    17A     -0.509431    18A     -0.508712
      19A     -0.452843    20A     -0.452207    21A     -0.451762

  @DF-RHF Final Energy:  -196.40447704091144

   => Energetics <=

    Nuclear Repulsion Energy =            199.3615740122747866
    One-Electron Energy =                -658.5373698660421269
    Two-Electron Energy =                 262.7713188128558954
    Total Energy =                       -196.4044770409114449

  Dipole Moment: [D]
     X:    -0.0042      Y:    -0.0004      Z:     0.0050     Total:     0.0066

    SAPT Results
  --------------------------------------------------------------------------------------------------------
    Electrostatics                 -0.18063102 [mEh]      -0.11334768 [kcal/mol]      -0.47424669 [kJ/mol]
      Elst10,r                     -0.20685222 [mEh]      -0.12980173 [kcal/mol]      -0.54309044 [kJ/mol]
      Elst12,r                      0.02622120 [mEh]       0.01645405 [kcal/mol]       0.06884375 [kJ/mol]

    Exchange                        0.02442586 [mEh]       0.01532746 [kcal/mol]       0.06413008 [kJ/mol]
      Exch10                        0.01976672 [mEh]       0.01240380 [kcal/mol]       0.05189752 [kJ/mol]
      Exch10(S^2)                   0.01976652 [mEh]       0.01240368 [kcal/mol]       0.05189698 [kJ/mol]
      Exch11(S^2)                  -0.00024036 [mEh]      -0.00015083 [kcal/mol]      -0.00063106 [kJ/mol]
      Exch12(S^2)                   0.00489949 [mEh]       0.00307448 [kcal/mol]       0.01286362 [kJ/mol]

    Induction                      -0.02040458 [mEh]      -0.01280407 [kcal/mol]      -0.05357221 [kJ/mol]
      Ind20,r                      -0.03084207 [mEh]      -0.01935369 [kcal/mol]      -0.08097584 [kJ/mol]
      Ind22                         0.00833413 [mEh]       0.00522975 [kcal/mol]       0.02188126 [kJ/mol]
      Exch-Ind20,r                  0.00399592 [mEh]       0.00250748 [kcal/mol]       0.01049129 [kJ/mol]
      Exch-Ind22                   -0.00107978 [mEh]      -0.00067757 [kcal/mol]      -0.00283495 [kJ/mol]
      delta HF,r (2)               -0.00081278 [mEh]      -0.00051003 [kcal/mol]      -0.00213397 [kJ/mol]

    Dispersion                     -0.99774597 [mEh]      -0.62609505 [kcal/mol]      -2.61958167 [kJ/mol]
      Disp20                       -1.01273890 [mEh]      -0.63550325 [kcal/mol]      -2.65894561 [kJ/mol]
      Disp21                        0.21240578 [mEh]       0.13328664 [kcal/mol]       0.55767130 [kJ/mol]
      Disp22 (SDQ)                  0.00884366 [mEh]       0.00554948 [kcal/mol]       0.02321903 [kJ/mol]
      Disp22 (T)                   -0.20424626 [mEh]      -0.12816646 [kcal/mol]      -0.53624847 [kJ/mol]
      Est. Disp22 (T)              -0.21109268 [mEh]      -0.13246266 [kcal/mol]      -0.55422375 [kJ/mol]
      Exch-Disp20                   0.00483617 [mEh]       0.00303474 [kcal/mol]       0.01269736 [kJ/mol]

  Total HF                         -0.21474444 [mEh]      -0.13475417 [kcal/mol]      -0.56381144 [kJ/mol]
  Total SAPT0                      -1.22264716 [mEh]      -0.76722268 [kcal/mol]      -3.21005968 [kJ/mol]
  Total SAPT2                      -1.18451247 [mEh]      -0.74329280 [kcal/mol]      -3.10993707 [kJ/mol]
  Total SAPT2+                     -1.17435571 [mEh]      -0.73691933 [kcal/mol]      -3.08327050 [kJ/mol]

  Special recipe for scaled SAPT0 (see Manual):
    Electrostatics sSAPT0          -0.20685222 [mEh]      -0.12980173 [kcal/mol]      -0.54309044 [kJ/mol]
    Exchange sSAPT0                 0.01976672 [mEh]       0.01240380 [kcal/mol]       0.05189752 [kJ/mol]
    Induction sSAPT0               -0.02765881 [mEh]      -0.01735616 [kcal/mol]      -0.07261819 [kJ/mol]
    Dispersion sSAPT0              -1.00790258 [mEh]      -0.63246842 [kcal/mol]      -2.64624785 [kJ/mol]
  Total sSAPT0                     -1.22264689 [mEh]      -0.76722250 [kcal/mol]      -3.21005896 [kJ/mol]
  --------------------------------------------------------------------------------------------------------

*** Psi4 exiting successfully. Buy a developer a beer!
