                               Psi4 1.4a2.dev224

  ==> Input File <==

--------------------------------------------------------------------------
#Generated by lconvert.py for sapt job

memory 50 GB

molecule  {
0 1
  N       0.626080   -0.850910    0.805920
  H       0.409190   -1.811500    1.034400
  C      -0.432460   -0.087340    0.294660
  O      -1.530770   -0.588400    0.123590
  C      -0.066880    1.291270    0.019640
  H      -0.809740    1.951810   -0.392840
  C       1.183540    1.717930    0.290530
  H       1.501850    2.733870    0.109830
  N       2.134130    0.886600    0.819080
  H       3.055340    1.223900    1.043430
  C       1.902780   -0.443180    1.128310
  O       2.743810   -1.163920    1.628590
--
0 1
  C      -0.934970   -0.048160    5.603530
  C      -2.251710    0.693130    5.818410
  H      -2.958780    0.074930    6.373270
  H      -2.092210    1.613320    6.382590
  H      -2.709420    0.954630    4.863250
  C      -0.319530   -0.401600    6.954810
  H       0.623630   -0.933970    6.824030
  H      -0.122510    0.498150    7.539610
  H      -0.990820   -1.039330    7.531550
  C       0.030160    0.845320    4.827750
  H       0.978730    0.332720    4.657390
  H       0.235450    1.763460    5.381170
  H      -0.392240    1.123810    3.860280
  C      -1.196280   -1.328190    4.813170
  H      -1.660020   -1.106360    3.850540
  H      -0.263710   -1.866590    4.633530
  H      -1.866790   -1.990010    5.363360
units angstrom
no_reorient
symmetry c1
}

set {
scf_type DF
basis aug-cc-pvtz
freeze_core True
guess SAD
}
energy('sapt2+')
--------------------------------------------------------------------------

  //              Dimer HF             //
    Molecular point group: c1
  Charge       = 0
  Multiplicity = 1
  Basis Set: AUG-CC-PVTZ
    Blend: AUG-CC-PVTZ
  Basis Set: (AUG-CC-PVTZ AUX)
    Blend: AUG-CC-PVTZ-JKFIT
  @DF-RHF Final Energy:  -609.02946965625199
    Total Energy =                       -609.0294696562519903
  //            Monomer A HF           //
    Molecular point group: c1
  Multiplicity = 1
  Basis Set: AUG-CC-PVTZ
    Blend: AUG-CC-PVTZ
  Basis Set: (AUG-CC-PVTZ AUX)
    Blend: AUG-CC-PVTZ-JKFIT
  @DF-RHF Final Energy:  -412.62469438286672
    Total Energy =                       -412.6246943828667213
  //            Monomer B HF           //
    Molecular point group: c1

    Geometry (in Angstrom), charge = 0, multiplicity = 1:

       Center              X                  Y                   Z               Mass
    ------------   -----------------  -----------------  -----------------  -----------------
      Gh(N)           0.485344503553    -0.866617738223    -1.786863954600    14.003074004430
      Gh(H)           0.268454503553    -1.827207738223    -1.558383954600     1.007825032230
      Gh(C)          -0.573195496447    -0.103047738223    -2.298123954600    12.000000000000
      Gh(O)          -1.671505496447    -0.604107738223    -2.469193954600    15.994914619570
      Gh(C)          -0.207615496447     1.275562261777    -2.573143954600    12.000000000000
      Gh(H)          -0.950475496447     1.936102261777    -2.985623954600     1.007825032230
      Gh(C)           1.042804503553     1.702222261777    -2.302253954600    12.000000000000
      Gh(H)           1.361114503553     2.718162261777    -2.482953954600     1.007825032230
      Gh(N)           1.993394503553     0.870892261777    -1.773703954600    14.003074004430
      Gh(H)           2.914604503553     1.208192261777    -1.549353954600     1.007825032230
      Gh(C)           1.762044503553    -0.458887738223    -1.464473954600    12.000000000000
      Gh(O)           2.603074503553    -1.179627738223    -0.964193954600    15.994914619570
         C           -1.075705496447    -0.063867738223     3.010746045400    12.000000000000
         C           -2.392445496447     0.677422261777     3.225626045400    12.000000000000
         H           -3.099515496447     0.059222261777     3.780486045400     1.007825032230
         H           -2.232945496447     1.597612261777     3.789806045400     1.007825032230
         H           -2.850155496447     0.938922261777     2.270466045400     1.007825032230
         C           -0.460265496447    -0.417307738223     4.362026045400    12.000000000000
         H            0.482894503553    -0.949677738223     4.231246045400     1.007825032230
         H           -0.263245496447     0.482442261777     4.946826045400     1.007825032230
         H           -1.131555496447    -1.055037738223     4.938766045400     1.007825032230
         C           -0.110575496447     0.829612261777     2.234966045400    12.000000000000
         H            0.837994503553     0.317012261777     2.064606045400     1.007825032230
         H            0.094714503553     1.747752261777     2.788386045400     1.007825032230
         H           -0.532975496447     1.108102261777     1.267496045400     1.007825032230
         C           -1.337015496447    -1.343897738223     2.220386045400    12.000000000000
         H           -1.800755496447    -1.122067738223     1.257756045400     1.007825032230
         H           -0.404445496447    -1.882297738223     2.040746045400     1.007825032230
         H           -2.007525496447    -2.005717738223     2.770576045400     1.007825032230

  Charge       = 0
  Multiplicity = 1
  Basis Set: AUG-CC-PVTZ
    Blend: AUG-CC-PVTZ
  Basis Set: (AUG-CC-PVTZ AUX)
    Blend: AUG-CC-PVTZ-JKFIT

    Orbital Energies [Eh]
    ---------------------

    Doubly Occupied:

       1A    -11.226728     2A    -11.205808     3A    -11.205789
       4A    -11.205602     5A    -11.205576     6A     -1.106522
       7A     -0.928945     8A     -0.928718     9A     -0.928214
      10A     -0.729574    11A     -0.612261    12A     -0.611654
      13A     -0.611456    14A     -0.553523    15A     -0.552358
      16A     -0.509704    17A     -0.509433    18A     -0.508712
      19A     -0.452840    20A     -0.452210    21A     -0.451759

  @DF-RHF Final Energy:  -196.40448646013559

   => Energetics <=

    Nuclear Repulsion Energy =            199.3615979993233793
    One-Electron Energy =                -658.5374151467505044
    Two-Electron Energy =                 262.7713306872915382
    Total Energy =                       -196.4044864601355584

  Dipole Moment: [D]
     X:    -0.0042      Y:    -0.0005      Z:     0.0051     Total:     0.0066

    SAPT Results
  --------------------------------------------------------------------------------------------------------
    Electrostatics                 -0.54345394 [mEh]      -0.34102250 [kcal/mol]      -1.42683812 [kJ/mol]
      Elst10,r                     -0.56506228 [mEh]      -0.35458194 [kcal/mol]      -1.48357082 [kJ/mol]
      Elst12,r                      0.02160834 [mEh]       0.01355944 [kcal/mol]       0.05673270 [kJ/mol]

    Exchange                        0.43804668 [mEh]       0.27487844 [kcal/mol]       1.15009139 [kJ/mol]
      Exch10                        0.37394550 [mEh]       0.23465435 [kcal/mol]       0.98179379 [kJ/mol]
      Exch10(S^2)                   0.37389164 [mEh]       0.23462055 [kcal/mol]       0.98165238 [kJ/mol]
      Exch11(S^2)                   0.00281884 [mEh]       0.00176885 [kcal/mol]       0.00740086 [kJ/mol]
      Exch12(S^2)                   0.06128234 [mEh]       0.03845525 [kcal/mol]       0.16089675 [kJ/mol]

    Induction                      -0.09332677 [mEh]      -0.05856343 [kcal/mol]      -0.24502940 [kJ/mol]
      Ind20,r                      -0.16706337 [mEh]      -0.10483385 [kcal/mol]      -0.43862481 [kJ/mol]
      Ind22                         0.00904911 [mEh]       0.00567840 [kcal/mol]       0.02375843 [kJ/mol]
      Exch-Ind20,r                  0.08639056 [mEh]       0.05421090 [kcal/mol]       0.22681839 [kJ/mol]
      Exch-Ind22                   -0.00467941 [mEh]      -0.00293637 [kcal/mol]      -0.01228578 [kJ/mol]
      delta HF,r (2)               -0.01702366 [mEh]      -0.01068251 [kcal/mol]      -0.04469562 [kJ/mol]

    Dispersion                     -2.83546969 [mEh]      -1.77928409 [kcal/mol]      -7.44452465 [kJ/mol]
      Disp20                       -2.87162152 [mEh]      -1.80196971 [kcal/mol]      -7.53944127 [kJ/mol]
      Disp21                        0.53520221 [mEh]       0.33584446 [kcal/mol]       1.40517321 [kJ/mol]
      Disp22 (SDQ)                  0.01880927 [mEh]       0.01180300 [kcal/mol]       0.04938374 [kJ/mol]
      Disp22 (T)                   -0.55536375 [mEh]      -0.34849601 [kcal/mol]      -1.45810732 [kJ/mol]
      Est. Disp22 (T)              -0.58748171 [mEh]      -0.36865034 [kcal/mol]      -1.54243301 [kJ/mol]
      Exch-Disp20                   0.06962205 [mEh]       0.04368850 [kcal/mol]       0.18279267 [kJ/mol]

  Total HF                         -0.28881325 [mEh]      -0.18123305 [kcal/mol]      -0.75827908 [kJ/mol]
  Total SAPT0                      -3.09081272 [mEh]      -1.93951426 [kcal/mol]      -8.11492768 [kJ/mol]
  Total SAPT2                      -3.00073351 [mEh]      -1.88298870 [kcal/mol]      -7.87842473 [kJ/mol]
  Total SAPT2+                     -3.03420373 [mEh]      -1.90399158 [kcal/mol]      -7.96630079 [kJ/mol]

  Special recipe for scaled SAPT0 (see Manual):
    Electrostatics sSAPT0          -0.56506228 [mEh]      -0.35458194 [kcal/mol]      -1.48357082 [kJ/mol]
    Exchange sSAPT0                 0.37394550 [mEh]       0.23465435 [kcal/mol]       0.98179379 [kJ/mol]
    Induction sSAPT0               -0.09765913 [mEh]      -0.06128203 [kcal/mol]      -0.25640401 [kJ/mol]
    Dispersion sSAPT0              -2.80196938 [mEh]      -1.75826233 [kcal/mol]      -7.35656959 [kJ/mol]
  Total sSAPT0                     -3.09074529 [mEh]      -1.93947195 [kcal/mol]      -8.11475064 [kJ/mol]
  --------------------------------------------------------------------------------------------------------

*** Psi4 exiting successfully. Buy a developer a beer!
