                               Psi4 1.4a2.dev224

  ==> Input File <==

--------------------------------------------------------------------------
#Generated by lconvert.py for sapt job

memory 50 GB

molecule  {
0 1
  C       0.666400    0.183810    0.419740
  H       1.228880   -0.329880    1.186260
  H       1.228040    0.697210   -0.347610
  C      -0.665970    0.182970    0.419610
  H      -1.227920   -0.331500    1.186100
  H      -1.228180    0.695650   -0.347750
--
0 1
  C      -2.532920   -0.533670    6.299090
  H      -2.562420   -1.146690    5.397900
  H      -2.569060   -1.207890    7.154710
  H      -3.434090    0.077340    6.316340
  C      -1.271490    0.319000    6.334910
  H      -1.271890    0.939100    7.234310
  H      -1.263100    1.005910    5.485850
  C      -0.000210   -0.518550    6.307970
  H      -0.000360   -1.205230    7.159800
  H      -0.000070   -1.146130    5.411330
  C       1.271010    0.319030    6.335370
  H       1.271280    0.938840    7.234860
  H       1.262810    1.006110    5.486470
  C       2.532460   -0.533690    6.299550
  H       2.562080   -1.146550    5.398240
  H       3.433640    0.077240    6.317130
  H       2.568380   -1.208150    7.155050
units angstrom
no_reorient
symmetry c1
}

set {
scf_type DF
basis aug-cc-pvtz
freeze_core True
guess SAD
}
energy('sapt2+')
--------------------------------------------------------------------------

  //              Dimer HF             //
    Molecular point group: c1
  Charge       = 0
  Multiplicity = 1
  Basis Set: AUG-CC-PVTZ
    Blend: AUG-CC-PVTZ
  Basis Set: (AUG-CC-PVTZ AUX)
    Blend: AUG-CC-PVTZ-JKFIT
  @DF-RHF Final Energy:  -274.46911294764095
    Total Energy =                       -274.4691129476409515
  //            Monomer A HF           //
    Molecular point group: c1
  Multiplicity = 1
  Basis Set: AUG-CC-PVTZ
    Blend: AUG-CC-PVTZ
  Basis Set: (AUG-CC-PVTZ AUX)
    Blend: AUG-CC-PVTZ-JKFIT
  @DF-RHF Final Energy:   -78.06473661172723
    Total Energy =                        -78.0647366117272270
  //            Monomer B HF           //
    Molecular point group: c1

    Geometry (in Angstrom), charge = 0, multiplicity = 1:

       Center              X                  Y                   Z               Mass
    ------------   -----------------  -----------------  -----------------  -----------------
      Gh(C)           0.666506221945     0.276450985260    -4.244717618431    12.000000000000
      Gh(H)           1.228986221945    -0.237239014740    -3.478197618431     1.007825032230
      Gh(H)           1.228146221945     0.789850985260    -5.012067618431     1.007825032230
      Gh(C)          -0.665863778055     0.275610985260    -4.244847618431    12.000000000000
      Gh(H)          -1.227813778055    -0.238859014740    -3.478357618431     1.007825032230
      Gh(H)          -1.228073778055     0.788290985260    -5.012207618431     1.007825032230
         C           -2.532813778055    -0.441029014740     1.634632381569    12.000000000000
         H           -2.562313778055    -1.054049014740     0.733442381569     1.007825032230
         H           -2.568953778055    -1.115249014740     2.490252381569     1.007825032230
         H           -3.433983778055     0.169980985260     1.651882381569     1.007825032230
         C           -1.271383778055     0.411640985260     1.670452381569    12.000000000000
         H           -1.271783778055     1.031740985260     2.569852381569     1.007825032230
         H           -1.262993778055     1.098550985260     0.821392381569     1.007825032230
         C           -0.000103778055    -0.425909014740     1.643512381569    12.000000000000
         H           -0.000253778055    -1.112589014740     2.495342381569     1.007825032230
         H            0.000036221945    -1.053489014740     0.746872381569     1.007825032230
         C            1.271116221945     0.411670985260     1.670912381569    12.000000000000
         H            1.271386221945     1.031480985260     2.570402381569     1.007825032230
         H            1.262916221945     1.098750985260     0.822012381569     1.007825032230
         C            2.532566221945    -0.441049014740     1.635092381569    12.000000000000
         H            2.562186221945    -1.053909014740     0.733782381569     1.007825032230
         H            3.433746221945     0.169880985260     1.652672381569     1.007825032230
         H            2.568486221945    -1.115509014740     2.490592381569     1.007825032230

  Charge       = 0
  Multiplicity = 1
  Basis Set: AUG-CC-PVTZ
    Blend: AUG-CC-PVTZ
  Basis Set: (AUG-CC-PVTZ AUX)
    Blend: AUG-CC-PVTZ-JKFIT

    Orbital Energies [Eh]
    ---------------------

    Doubly Occupied:

       1A    -11.212559     2A    -11.212487     3A    -11.210096
       4A    -11.207061     5A    -11.207056     6A     -1.081275
       7A     -1.015295     8A     -0.918891     9A     -0.819909
      10A     -0.785061    11A     -0.647344    12A     -0.598258
      13A     -0.592725    14A     -0.554055    15A     -0.547370
      16A     -0.525267    17A     -0.494656    18A     -0.475896
      19A     -0.461906    20A     -0.459162    21A     -0.446590

  @DF-RHF Final Energy:  -196.40437391888284

   => Energetics <=

    Nuclear Repulsion Energy =            185.6560739156847717
    One-Electron Energy =                -631.1750591069841221
    Two-Electron Energy =                 249.1146112724165107
    Total Energy =                       -196.4043739188828397

  Dipole Moment: [D]
     X:    -0.0000      Y:     0.0829      Z:     0.0046     Total:     0.0830

    SAPT Results
  --------------------------------------------------------------------------------------------------------
    Electrostatics                 -0.00244394 [mEh]      -0.00153360 [kcal/mol]      -0.00641656 [kJ/mol]
      Elst10,r                     -0.00459617 [mEh]      -0.00288414 [kcal/mol]      -0.01206725 [kJ/mol]
      Elst12,r                      0.00215223 [mEh]       0.00135055 [kcal/mol]       0.00565068 [kJ/mol]

    Exchange                        0.00520418 [mEh]       0.00326567 [kcal/mol]       0.01366358 [kJ/mol]
      Exch10                        0.00475509 [mEh]       0.00298386 [kcal/mol]       0.01248448 [kJ/mol]
      Exch10(S^2)                   0.00475507 [mEh]       0.00298385 [kcal/mol]       0.01248443 [kJ/mol]
      Exch11(S^2)                   0.00004477 [mEh]       0.00002809 [kcal/mol]       0.00011754 [kJ/mol]
      Exch12(S^2)                   0.00040433 [mEh]       0.00025372 [kcal/mol]       0.00106156 [kJ/mol]

    Induction                      -0.00248062 [mEh]      -0.00155661 [kcal/mol]      -0.00651287 [kJ/mol]
      Ind20,r                      -0.00303389 [mEh]      -0.00190380 [kcal/mol]      -0.00796548 [kJ/mol]
      Ind22                         0.00011777 [mEh]       0.00007390 [kcal/mol]       0.00030922 [kJ/mol]
      Exch-Ind20,r                  0.00057831 [mEh]       0.00036290 [kcal/mol]       0.00151836 [kJ/mol]
      Exch-Ind22                   -0.00002245 [mEh]      -0.00001409 [kcal/mol]      -0.00005894 [kJ/mol]
      delta HF,r (2)               -0.00012037 [mEh]      -0.00007553 [kcal/mol]      -0.00031603 [kJ/mol]

    Dispersion                     -0.38107638 [mEh]      -0.23912904 [kcal/mol]      -1.00051590 [kJ/mol]
      Disp20                       -0.39360897 [mEh]      -0.24699336 [kcal/mol]      -1.03342021 [kJ/mol]
      Disp21                        0.04698726 [mEh]       0.02948495 [kcal/mol]       0.12336504 [kJ/mol]
      Disp22 (SDQ)                  0.02957930 [mEh]       0.01856129 [kcal/mol]       0.07766045 [kJ/mol]
      Disp22 (T)                   -0.06275704 [mEh]      -0.03938064 [kcal/mol]      -0.16476859 [kJ/mol]
      Est. Disp22 (T)              -0.06516554 [mEh]      -0.04089199 [kcal/mol]      -0.17109210 [kJ/mol]
      Exch-Disp20                   0.00113156 [mEh]       0.00071006 [kcal/mol]       0.00297090 [kJ/mol]

  Total HF                         -0.00241703 [mEh]      -0.00151671 [kcal/mol]      -0.00634591 [kJ/mol]
  Total SAPT0                      -0.39489444 [mEh]      -0.24780000 [kcal/mol]      -1.03679522 [kJ/mol]
  Total SAPT2                      -0.39219779 [mEh]      -0.24610783 [kcal/mol]      -1.02971517 [kJ/mol]
  Total SAPT2+                     -0.38079676 [mEh]      -0.23895358 [kcal/mol]      -0.99978177 [kJ/mol]

  Special recipe for scaled SAPT0 (see Manual):
    Electrostatics sSAPT0          -0.00459617 [mEh]      -0.00288414 [kcal/mol]      -0.01206725 [kJ/mol]
    Exchange sSAPT0                 0.00475509 [mEh]       0.00298386 [kcal/mol]       0.01248448 [kJ/mol]
    Induction sSAPT0               -0.00257595 [mEh]      -0.00161643 [kcal/mol]      -0.00676315 [kJ/mol]
    Dispersion sSAPT0              -0.39247741 [mEh]      -0.24628329 [kcal/mol]      -1.03044931 [kJ/mol]
  Total sSAPT0                     -0.39489444 [mEh]      -0.24780000 [kcal/mol]      -1.03679522 [kJ/mol]
  --------------------------------------------------------------------------------------------------------

*** Psi4 exiting successfully. Buy a developer a beer!
