                               Psi4 1.4a2.dev224

  ==> Input File <==

--------------------------------------------------------------------------
#Generated by lconvert.py for sapt job

memory 50 GB

molecule  {
0 1
  C       0.666400    0.183810    0.419740
  H       1.228880   -0.329880    1.186260
  H       1.228040    0.697210   -0.347610
  C      -0.665970    0.182970    0.419610
  H      -1.227920   -0.331500    1.186100
  H      -1.228180    0.695650   -0.347750
--
0 1
  C      -2.533000   -0.603590    7.374570
  H      -2.562500   -1.216610    6.473380
  H      -2.569140   -1.277810    8.230180
  H      -3.434170    0.007430    7.391810
  C      -1.271570    0.249090    7.410380
  H      -1.271970    0.869180    8.309780
  H      -1.263180    0.936000    6.561320
  C      -0.000290   -0.588470    7.383440
  H      -0.000450   -1.275140    8.235270
  H      -0.000150   -1.216050    6.486800
  C       1.270930    0.249120    7.410850
  H       1.271200    0.868930    8.310330
  H       1.262730    0.936190    6.561940
  C       2.532380   -0.603610    7.375020
  H       2.562000   -1.216460    6.473710
  H       3.433560    0.007330    7.392600
  H       2.568300   -1.278060    8.230530
units angstrom
no_reorient
symmetry c1
}

set {
scf_type DF
basis aug-cc-pvtz
freeze_core True
guess SAD
}
energy('sapt2+')
--------------------------------------------------------------------------

  //              Dimer HF             //
    Molecular point group: c1
  Charge       = 0
  Multiplicity = 1
  Basis Set: AUG-CC-PVTZ
    Blend: AUG-CC-PVTZ
  Basis Set: (AUG-CC-PVTZ AUX)
    Blend: AUG-CC-PVTZ-JKFIT
  @DF-RHF Final Energy:  -274.46910123224245
    Total Energy =                       -274.4691012322424513
  //            Monomer A HF           //
    Molecular point group: c1
  Multiplicity = 1
  Basis Set: AUG-CC-PVTZ
    Blend: AUG-CC-PVTZ
  Basis Set: (AUG-CC-PVTZ AUX)
    Blend: AUG-CC-PVTZ-JKFIT
  @DF-RHF Final Energy:   -78.06472807592125
    Total Energy =                        -78.0647280759212379
  //            Monomer B HF           //
    Molecular point group: c1

    Geometry (in Angstrom), charge = 0, multiplicity = 1:

       Center              X                  Y                   Z               Mass
    ------------   -----------------  -----------------  -----------------  -----------------
      Gh(C)           0.666563925603     0.326792906588    -5.019098961051    12.000000000000
      Gh(H)           1.229043925603    -0.186897093412    -4.252578961051     1.007825032230
      Gh(H)           1.228203925603     0.840192906588    -5.786448961051     1.007825032230
      Gh(C)          -0.665806074397     0.325952906588    -5.019228961051    12.000000000000
      Gh(H)          -1.227756074397    -0.188517093412    -4.252738961051     1.007825032230
      Gh(H)          -1.228016074397     0.838632906588    -5.786588961051     1.007825032230
         C           -2.532836074397    -0.460607093412     1.935731038949    12.000000000000
         H           -2.562336074397    -1.073627093412     1.034541038949     1.007825032230
         H           -2.568976074397    -1.134827093412     2.791341038949     1.007825032230
         H           -3.434006074397     0.150412906588     1.952971038949     1.007825032230
         C           -1.271406074397     0.392072906588     1.971541038949    12.000000000000
         H           -1.271806074397     1.012162906588     2.870941038949     1.007825032230
         H           -1.263016074397     1.078982906588     1.122481038949     1.007825032230
         C           -0.000126074397    -0.445487093412     1.944601038949    12.000000000000
         H           -0.000286074397    -1.132157093412     2.796431038949     1.007825032230
         H            0.000013925603    -1.073067093412     1.047961038949     1.007825032230
         C            1.271093925603     0.392102906588     1.972011038949    12.000000000000
         H            1.271363925603     1.011912906588     2.871491038949     1.007825032230
         H            1.262893925603     1.079172906588     1.123101038949     1.007825032230
         C            2.532543925603    -0.460627093412     1.936181038949    12.000000000000
         H            2.562163925603    -1.073477093412     1.034871038949     1.007825032230
         H            3.433723925603     0.150312906588     1.953761038949     1.007825032230
         H            2.568463925603    -1.135077093412     2.791691038949     1.007825032230

  Charge       = 0
  Multiplicity = 1
  Basis Set: AUG-CC-PVTZ
    Blend: AUG-CC-PVTZ
  Basis Set: (AUG-CC-PVTZ AUX)
    Blend: AUG-CC-PVTZ-JKFIT

    Orbital Energies [Eh]
    ---------------------

    Doubly Occupied:

       1A    -11.212558     2A    -11.212486     3A    -11.210095
       4A    -11.207061     5A    -11.207056     6A     -1.081273
       7A     -1.015293     8A     -0.918890     9A     -0.819909
      10A     -0.785062    11A     -0.647344    12A     -0.598256
      13A     -0.592726    14A     -0.554053    15A     -0.547368
      16A     -0.525268    17A     -0.494656    18A     -0.475898
      19A     -0.461907    20A     -0.459164    21A     -0.446585

  @DF-RHF Final Energy:  -196.40437150318184

   => Energetics <=

    Nuclear Repulsion Energy =            185.6558993948434306
    One-Electron Energy =                -631.1747249386554586
    Two-Electron Energy =                 249.1144540406301644
    Total Energy =                       -196.4043715031818351

  Dipole Moment: [D]
     X:    -0.0000      Y:     0.0829      Z:     0.0046     Total:     0.0830

    SAPT Results
  --------------------------------------------------------------------------------------------------------
    Electrostatics                  0.00015258 [mEh]       0.00009574 [kcal/mol]       0.00040059 [kJ/mol]
      Elst10,r                     -0.00103147 [mEh]      -0.00064725 [kcal/mol]      -0.00270811 [kJ/mol]
      Elst12,r                      0.00118404 [mEh]       0.00074300 [kcal/mol]       0.00310871 [kJ/mol]

    Exchange                        0.00014956 [mEh]       0.00009385 [kcal/mol]       0.00039267 [kJ/mol]
      Exch10                        0.00014135 [mEh]       0.00008870 [kcal/mol]       0.00037111 [kJ/mol]
      Exch10(S^2)                   0.00014135 [mEh]       0.00008870 [kcal/mol]       0.00037111 [kJ/mol]
      Exch11(S^2)                  -0.00000003 [mEh]      -0.00000002 [kcal/mol]      -0.00000009 [kJ/mol]
      Exch12(S^2)                   0.00000825 [mEh]       0.00000517 [kcal/mol]       0.00002165 [kJ/mol]

    Induction                      -0.00072823 [mEh]      -0.00045697 [kcal/mol]      -0.00191197 [kJ/mol]
      Ind20,r                      -0.00062669 [mEh]      -0.00039326 [kcal/mol]      -0.00164539 [kJ/mol]
      Ind22                         0.00003587 [mEh]       0.00002251 [kcal/mol]       0.00009418 [kJ/mol]
      Exch-Ind20,r                  0.00001884 [mEh]       0.00001182 [kcal/mol]       0.00004947 [kJ/mol]
      Exch-Ind22                   -0.00000108 [mEh]      -0.00000068 [kcal/mol]      -0.00000283 [kJ/mol]
      delta HF,r (2)               -0.00015517 [mEh]      -0.00009737 [kcal/mol]      -0.00040740 [kJ/mol]

    Dispersion                     -0.13446447 [mEh]      -0.08437773 [kcal/mol]      -0.35303641 [kJ/mol]
      Disp20                       -0.14094368 [mEh]      -0.08844349 [kcal/mol]      -0.37004757 [kJ/mol]
      Disp21                        0.01927642 [mEh]       0.01209614 [kcal/mol]       0.05061024 [kJ/mol]
      Disp22 (SDQ)                  0.01068487 [mEh]       0.00670486 [kcal/mol]       0.02805312 [kJ/mol]
      Disp22 (T)                   -0.02295665 [mEh]      -0.01440552 [kcal/mol]      -0.06027269 [kJ/mol]
      Est. Disp22 (T)              -0.02352310 [mEh]      -0.01476097 [kcal/mol]      -0.06175989 [kJ/mol]
      Exch-Disp20                   0.00004102 [mEh]       0.00002574 [kcal/mol]       0.00010769 [kJ/mol]

  Total HF                         -0.00165314 [mEh]      -0.00103736 [kcal/mol]      -0.00434032 [kJ/mol]
  Total SAPT0                      -0.14255580 [mEh]      -0.08945511 [kcal/mol]      -0.37428020 [kJ/mol]
  Total SAPT2                      -0.14132875 [mEh]      -0.08868513 [kcal/mol]      -0.37105859 [kJ/mol]
  Total SAPT2+                     -0.13489056 [mEh]      -0.08464510 [kcal/mol]      -0.35415512 [kJ/mol]

  Special recipe for scaled SAPT0 (see Manual):
    Electrostatics sSAPT0          -0.00103147 [mEh]      -0.00064725 [kcal/mol]      -0.00270811 [kJ/mol]
    Exchange sSAPT0                 0.00014135 [mEh]       0.00008870 [kcal/mol]       0.00037111 [kJ/mol]
    Induction sSAPT0               -0.00076302 [mEh]      -0.00047880 [kcal/mol]      -0.00200332 [kJ/mol]
    Dispersion sSAPT0              -0.14090266 [mEh]      -0.08841775 [kcal/mol]      -0.36993988 [kJ/mol]
  Total sSAPT0                     -0.14255580 [mEh]      -0.08945511 [kcal/mol]      -0.37428020 [kJ/mol]
  --------------------------------------------------------------------------------------------------------

*** Psi4 exiting successfully. Buy a developer a beer!
