                               Psi4 1.4a2.dev224

  ==> Input File <==

--------------------------------------------------------------------------
#Generated by lconvert.py for sapt job

memory 50 GB

molecule  {
0 1
  C       0.666400    0.183810    0.419740
  H       1.228880   -0.329880    1.186260
  H       1.228040    0.697210   -0.347610
  C      -0.665970    0.182970    0.419610
  H      -1.227920   -0.331500    1.186100
  H      -1.228180    0.695650   -0.347750
--
0 1
  C      -2.532840   -0.463760    5.223620
  H      -2.562330   -1.076780    4.322430
  H      -2.568980   -1.137980    6.079240
  H      -3.434010    0.147260    5.240870
  C      -1.271400    0.388920    5.259440
  H      -1.271810    1.009010    6.158830
  H      -1.263020    1.075830    4.410380
  C      -0.000130   -0.448640    5.232500
  H      -0.000280   -1.135310    6.084330
  H       0.000010   -1.076220    4.335850
  C       1.271090    0.388950    5.259900
  H       1.271360    1.008760    6.159390
  H       1.262900    1.076020    4.410990
  C       2.532540   -0.463780    5.224080
  H       2.562160   -1.076630    4.322770
  H       3.433720    0.147160    5.241650
  H       2.568460   -1.138230    6.079580
units angstrom
no_reorient
symmetry c1
}

set {
scf_type DF
basis aug-cc-pvtz
freeze_core True
guess SAD
}
energy('sapt2+')
--------------------------------------------------------------------------

  //              Dimer HF             //
    Molecular point group: c1
  Charge       = 0
  Multiplicity = 1
  Basis Set: AUG-CC-PVTZ
    Blend: AUG-CC-PVTZ
  Basis Set: (AUG-CC-PVTZ AUX)
    Blend: AUG-CC-PVTZ-JKFIT
  @DF-RHF Final Energy:  -274.46905308129340
    Total Energy =                       -274.4690530812933957
  //            Monomer A HF           //
    Molecular point group: c1
  Multiplicity = 1
  Basis Set: AUG-CC-PVTZ
    Blend: AUG-CC-PVTZ
  Basis Set: (AUG-CC-PVTZ AUX)
    Blend: AUG-CC-PVTZ-JKFIT
  @DF-RHF Final Energy:   -78.06475061639674
    Total Energy =                        -78.0647506163967364
  //            Monomer B HF           //
    Molecular point group: c1

    Geometry (in Angstrom), charge = 0, multiplicity = 1:

       Center              X                  Y                   Z               Mass
    ------------   -----------------  -----------------  -----------------  -----------------
      Gh(C)           0.666447219132     0.226110061119    -3.470338471497    12.000000000000
      Gh(H)           1.228927219132    -0.287579938881    -2.703818471497     1.007825032230
      Gh(H)           1.228087219132     0.739510061119    -4.237688471497     1.007825032230
      Gh(C)          -0.665922780868     0.225270061119    -3.470468471497    12.000000000000
      Gh(H)          -1.227872780868    -0.289199938881    -2.703978471497     1.007825032230
      Gh(H)          -1.228132780868     0.737950061119    -4.237828471497     1.007825032230
         C           -2.532792780868    -0.421459938881     1.333541528503    12.000000000000
         H           -2.562282780868    -1.034479938881     0.432351528503     1.007825032230
         H           -2.568932780868    -1.095679938881     2.189161528503     1.007825032230
         H           -3.433962780868     0.189560061119     1.350791528503     1.007825032230
         C           -1.271352780868     0.431220061119     1.369361528503    12.000000000000
         H           -1.271762780868     1.051310061119     2.268751528503     1.007825032230
         H           -1.262972780868     1.118130061119     0.520301528503     1.007825032230
         C           -0.000082780868    -0.406339938881     1.342421528503    12.000000000000
         H           -0.000232780868    -1.093009938881     2.194251528503     1.007825032230
         H            0.000057219132    -1.033919938881     0.445771528503     1.007825032230
         C            1.271137219132     0.431250061119     1.369821528503    12.000000000000
         H            1.271407219132     1.051060061119     2.269311528503     1.007825032230
         H            1.262947219132     1.118320061119     0.520911528503     1.007825032230
         C            2.532587219132    -0.421479938881     1.334001528503    12.000000000000
         H            2.562207219132    -1.034329938881     0.432691528503     1.007825032230
         H            3.433767219132     0.189460061119     1.351571528503     1.007825032230
         H            2.568507219132    -1.095929938881     2.189501528503     1.007825032230

  Charge       = 0
  Multiplicity = 1
  Basis Set: AUG-CC-PVTZ
    Blend: AUG-CC-PVTZ
  Basis Set: (AUG-CC-PVTZ AUX)
    Blend: AUG-CC-PVTZ-JKFIT

    Orbital Energies [Eh]
    ---------------------

    Doubly Occupied:

       1A    -11.212561     2A    -11.212489     3A    -11.210099
       4A    -11.207062     5A    -11.207059     6A     -1.081274
       7A     -1.015293     8A     -0.918890     9A     -0.819909
      10A     -0.785062    11A     -0.647345    12A     -0.598257
      13A     -0.592726    14A     -0.554053    15A     -0.547368
      16A     -0.525268    17A     -0.494656    18A     -0.475899
      19A     -0.461907    20A     -0.459164    21A     -0.446586

  @DF-RHF Final Energy:  -196.40437934911569

   => Energetics <=

    Nuclear Repulsion Energy =            185.6559228429530322
    One-Electron Energy =                -631.1747554902576667
    Two-Electron Energy =                 249.1144532981889483
    Total Energy =                       -196.4043793491156862

  Dipole Moment: [D]
     X:     0.0000      Y:     0.0829      Z:     0.0046     Total:     0.0830

    SAPT Results
  --------------------------------------------------------------------------------------------------------
    Electrostatics                 -0.06222712 [mEh]      -0.03904811 [kcal/mol]      -0.16337729 [kJ/mol]
      Elst10,r                     -0.05921449 [mEh]      -0.03715765 [kcal/mol]      -0.15546763 [kJ/mol]
      Elst12,r                     -0.00301263 [mEh]      -0.00189046 [kcal/mol]      -0.00790967 [kJ/mol]

    Exchange                        0.17608000 [mEh]       0.11049187 [kcal/mol]       0.46229797 [kJ/mol]
      Exch10                        0.16122971 [mEh]       0.10117317 [kcal/mol]       0.42330855 [kJ/mol]
      Exch10(S^2)                   0.16121750 [mEh]       0.10116551 [kcal/mol]       0.42327648 [kJ/mol]
      Exch11(S^2)                   0.00341325 [mEh]       0.00214185 [kcal/mol]       0.00896149 [kJ/mol]
      Exch12(S^2)                   0.01143703 [mEh]       0.00717685 [kcal/mol]       0.03002792 [kJ/mol]

    Induction                      -0.02531052 [mEh]      -0.01588259 [kcal/mol]      -0.06645275 [kJ/mol]
      Ind20,r                      -0.03608996 [mEh]      -0.02264679 [kcal/mol]      -0.09475417 [kJ/mol]
      Ind22                        -0.00044945 [mEh]      -0.00028204 [kcal/mol]      -0.00118004 [kJ/mol]
      Exch-Ind20,r                  0.02167550 [mEh]       0.01360158 [kcal/mol]       0.05690901 [kJ/mol]
      Exch-Ind22                    0.00026994 [mEh]       0.00016939 [kcal/mol]       0.00070873 [kJ/mol]
      delta HF,r (2)               -0.01071654 [mEh]      -0.00672473 [kcal/mol]      -0.02813628 [kJ/mol]

    Dispersion                     -1.37170646 [mEh]      -0.86075880 [kcal/mol]      -3.60141482 [kJ/mol]
      Disp20                       -1.40263089 [mEh]      -0.88016417 [kcal/mol]      -3.68260690 [kJ/mol]
      Disp21                        0.12750117 [mEh]       0.08000819 [kcal/mol]       0.33475426 [kJ/mol]
      Disp22 (SDQ)                  0.10252358 [mEh]       0.06433452 [kcal/mol]       0.26917563 [kJ/mol]
      Disp22 (T)                   -0.21364844 [mEh]      -0.13406642 [kcal/mol]      -0.56093389 [kJ/mol]
      Est. Disp22 (T)              -0.22808838 [mEh]      -0.14312762 [kcal/mol]      -0.59884597 [kJ/mol]
      Exch-Disp20                   0.02898806 [mEh]       0.01819028 [kcal/mol]       0.07610815 [kJ/mol]

  Total HF                          0.07688422 [mEh]       0.04824558 [kcal/mol]       0.20185949 [kJ/mol]
  Total SAPT0                      -1.29675861 [mEh]      -0.81372831 [kcal/mol]      -3.40463926 [kJ/mol]
  Total SAPT2                      -1.28510047 [mEh]      -0.80641272 [kcal/mol]      -3.37403082 [kJ/mol]
  Total SAPT2+                     -1.28316411 [mEh]      -0.80519763 [kcal/mol]      -3.36894690 [kJ/mol]

  Special recipe for scaled SAPT0 (see Manual):
    Electrostatics sSAPT0          -0.05921449 [mEh]      -0.03715765 [kcal/mol]      -0.15546763 [kJ/mol]
    Exchange sSAPT0                 0.16122971 [mEh]       0.10117317 [kcal/mol]       0.42330855 [kJ/mol]
    Induction sSAPT0               -0.02512608 [mEh]      -0.01576685 [kcal/mol]      -0.06596850 [kJ/mol]
    Dispersion sSAPT0              -1.37363624 [mEh]      -0.86196975 [kcal/mol]      -3.60648145 [kJ/mol]
  Total sSAPT0                     -1.29674709 [mEh]      -0.81372109 [kcal/mol]      -3.40460902 [kJ/mol]
  --------------------------------------------------------------------------------------------------------

*** Psi4 exiting successfully. Buy a developer a beer!
