                               Psi4 1.4a2.dev224

  ==> Input File <==

--------------------------------------------------------------------------
#Generated by lconvert.py for sapt job

memory 50 GB

molecule  {
0 1
  C       1.372190    1.012480    0.970830
  H       0.952180    2.014050    1.033120
  H       1.947420    0.926520    0.050720
  H       2.051700    0.851830    1.802950
  C       0.326740   -0.077650    0.988200
  O       0.618820   -1.252480    1.171280
  N      -0.950030    0.344890    0.773920
  H      -1.104670    1.322030    0.606110
  C      -2.059850   -0.577370    0.680150
  H      -1.669360   -1.566800    0.897180
  H      -2.834590   -0.331380    1.403660
  H      -2.490970   -0.578930   -0.319940
--
0 1
  C       2.730370    0.511530    5.669860
  H       2.847210    1.265950    4.891110
  H       2.644260    1.036420    6.621510
  H       3.642460   -0.082710    5.696670
  C       1.502100   -0.351850    5.412310
  H       1.407530   -1.097310    6.205360
  H       1.618520   -0.905320    4.478460
  C       0.219560    0.466760    5.347010
  H       0.107990    1.044490    6.270090
  H       0.298790    1.199570    4.537350
  C      -1.024800   -0.383580    5.130120
  H      -1.115600   -1.098060    5.951540
  H      -0.896990   -0.972510    4.219910
  C      -2.291640    0.456710    5.040010
  H      -2.224720    1.163770    4.212240
  H      -3.176980   -0.159300    4.886180
  H      -2.441990    1.032930    5.953230
units angstrom
no_reorient
symmetry c1
}

set {
scf_type DF
basis aug-cc-pvtz
freeze_core True
guess SAD
}
energy('sapt2+')
--------------------------------------------------------------------------

  //              Dimer HF             //
    Molecular point group: c1
  Charge       = 0
  Multiplicity = 1
  Basis Set: AUG-CC-PVTZ
    Blend: AUG-CC-PVTZ
  Basis Set: (AUG-CC-PVTZ AUX)
    Blend: AUG-CC-PVTZ-JKFIT
  @DF-RHF Final Energy:  -443.50723887363455
    Total Energy =                       -443.5072388736344919
  //            Monomer A HF           //
    Molecular point group: c1
  Multiplicity = 1
  Basis Set: AUG-CC-PVTZ
    Blend: AUG-CC-PVTZ
  Basis Set: (AUG-CC-PVTZ AUX)
    Blend: AUG-CC-PVTZ-JKFIT
  @DF-RHF Final Energy:  -247.10285953182930
    Total Energy =                       -247.1028595318292673
  //            Monomer B HF           //
    Molecular point group: c1

    Geometry (in Angstrom), charge = 0, multiplicity = 1:

       Center              X                  Y                   Z               Mass
    ------------   -----------------  -----------------  -----------------  -----------------
      Gh(C)           1.334645652565     0.994667360553    -2.132060116569    12.000000000000
      Gh(H)           0.914635652565     1.996237360553    -2.069770116569     1.007825032230
      Gh(H)           1.909875652565     0.908707360553    -3.052170116569     1.007825032230
      Gh(H)           2.014155652565     0.834017360553    -1.299940116569     1.007825032230
      Gh(C)           0.289195652565    -0.095462639447    -2.114690116569    12.000000000000
      Gh(O)           0.581275652565    -1.270292639447    -1.931610116569    15.994914619570
      Gh(N)          -0.987574347435     0.327077360553    -2.328970116569    14.003074004430
      Gh(H)          -1.142214347435     1.304217360553    -2.496780116569     1.007825032230
      Gh(C)          -2.097394347435    -0.595182639447    -2.422740116569    12.000000000000
      Gh(H)          -1.706904347435    -1.584612639447    -2.205710116569     1.007825032230
      Gh(H)          -2.872134347435    -0.349192639447    -1.699230116569     1.007825032230
      Gh(H)          -2.528514347435    -0.596742639447    -3.422830116569     1.007825032230
         C            2.692825652565     0.493717360553     2.566969883431    12.000000000000
         H            2.809665652565     1.248137360553     1.788219883431     1.007825032230
         H            2.606715652565     1.018607360553     3.518619883431     1.007825032230
         H            3.604915652565    -0.100522639447     2.593779883431     1.007825032230
         C            1.464555652565    -0.369662639447     2.309419883431    12.000000000000
         H            1.369985652565    -1.115122639447     3.102469883431     1.007825032230
         H            1.580975652565    -0.923132639447     1.375569883431     1.007825032230
         C            0.182015652565     0.448947360553     2.244119883431    12.000000000000
         H            0.070445652565     1.026677360553     3.167199883431     1.007825032230
         H            0.261245652565     1.181757360553     1.434459883431     1.007825032230
         C           -1.062344347435    -0.401392639447     2.027229883431    12.000000000000
         H           -1.153144347435    -1.115872639447     2.848649883431     1.007825032230
         H           -0.934534347435    -0.990322639447     1.117019883431     1.007825032230
         C           -2.329184347435     0.438897360553     1.937119883431    12.000000000000
         H           -2.262264347435     1.145957360553     1.109349883431     1.007825032230
         H           -3.214524347435    -0.177112639447     1.783289883431     1.007825032230
         H           -2.479534347435     1.015117360553     2.850339883431     1.007825032230

  Charge       = 0
  Multiplicity = 1
  Basis Set: AUG-CC-PVTZ
    Blend: AUG-CC-PVTZ
  Basis Set: (AUG-CC-PVTZ AUX)
    Blend: AUG-CC-PVTZ-JKFIT

    Orbital Energies [Eh]
    ---------------------

    Doubly Occupied:

       1A    -11.212614     2A    -11.212408     3A    -11.210117
       4A    -11.207218     5A    -11.207144     6A     -1.081285
       7A     -1.015237     8A     -0.918628     9A     -0.819913
      10A     -0.785038    11A     -0.647377    12A     -0.598166
      13A     -0.592756    14A     -0.553914    15A     -0.547204
      16A     -0.525070    17A     -0.494843    18A     -0.476028
      19A     -0.462091    20A     -0.459140    21A     -0.446211

  @DF-RHF Final Energy:  -196.40431211141168

   => Energetics <=

    Nuclear Repulsion Energy =            185.6768014052919966
    One-Electron Energy =                -631.2174234329133924
    Two-Electron Energy =                 249.1363099162097114
    Total Energy =                       -196.4043121114116843

  Dipole Moment: [D]
     X:     0.0026      Y:    -0.0834      Z:    -0.0049     Total:     0.0836

    SAPT Results
  --------------------------------------------------------------------------------------------------------
    Electrostatics                 -0.49694841 [mEh]      -0.31183984 [kcal/mol]      -1.30473787 [kJ/mol]
      Elst10,r                     -0.44561779 [mEh]      -0.27962939 [kcal/mol]      -1.16996935 [kJ/mol]
      Elst12,r                     -0.05133062 [mEh]      -0.03221045 [kcal/mol]      -0.13476852 [kJ/mol]

    Exchange                        0.77764956 [mEh]       0.48798246 [kcal/mol]       2.04171863 [kJ/mol]
      Exch10                        0.65902148 [mEh]       0.41354222 [kcal/mol]       1.73026066 [kJ/mol]
      Exch10(S^2)                   0.65898965 [mEh]       0.41352225 [kcal/mol]       1.73017710 [kJ/mol]
      Exch11(S^2)                   0.00518304 [mEh]       0.00325241 [kcal/mol]       0.01360808 [kJ/mol]
      Exch12(S^2)                   0.11344503 [mEh]       0.07118783 [kcal/mol]       0.29784989 [kJ/mol]

    Induction                      -0.27170806 [mEh]      -0.17049938 [kcal/mol]      -0.71336942 [kJ/mol]
      Ind20,r                      -0.32938934 [mEh]      -0.20669493 [kcal/mol]      -0.86481161 [kJ/mol]
      Ind22                         0.01236850 [mEh]       0.00776135 [kcal/mol]       0.03247349 [kJ/mol]
      Exch-Ind20,r                  0.09167774 [mEh]       0.05752865 [kcal/mol]       0.24069987 [kJ/mol]
      Exch-Ind22                   -0.00344248 [mEh]      -0.00216019 [kcal/mol]      -0.00903823 [kJ/mol]
      delta HF,r (2)               -0.04292248 [mEh]      -0.02693426 [kcal/mol]      -0.11269295 [kJ/mol]

    Dispersion                     -3.81055225 [mEh]      -2.39115764 [kcal/mol]     -10.00460356 [kJ/mol]
      Disp20                       -3.81808624 [mEh]      -2.39588529 [kcal/mol]     -10.02438405 [kJ/mol]
      Disp21                        0.53057903 [mEh]       0.33294337 [kcal/mol]       1.39303504 [kJ/mol]
      Disp22 (SDQ)                  0.05026750 [mEh]       0.03154333 [kcal/mol]       0.13197731 [kJ/mol]
      Disp22 (T)                   -0.64374425 [mEh]      -0.40395561 [kcal/mol]      -1.69015029 [kJ/mol]
      Est. Disp22 (T)              -0.68581762 [mEh]      -0.43035705 [kcal/mol]      -1.80061392 [kJ/mol]
      Exch-Disp20                   0.11250508 [mEh]       0.07059801 [kcal/mol]       0.29538206 [kJ/mol]

  Total HF                         -0.06723039 [mEh]      -0.04218771 [kcal/mol]      -0.17651337 [kJ/mol]
  Total SAPT0                      -3.77281155 [mEh]      -2.36747499 [kcal/mol]      -9.90551537 [kJ/mol]
  Total SAPT2                      -3.69658808 [mEh]      -2.31964404 [kcal/mol]      -9.70539066 [kJ/mol]
  Total SAPT2+                     -3.80155917 [mEh]      -2.38551439 [kcal/mol]      -9.98099222 [kJ/mol]

  Special recipe for scaled SAPT0 (see Manual):
    Electrostatics sSAPT0          -0.44561779 [mEh]      -0.27962939 [kcal/mol]      -1.16996935 [kJ/mol]
    Exchange sSAPT0                 0.65902148 [mEh]       0.41354222 [kcal/mol]       1.73026066 [kJ/mol]
    Induction sSAPT0               -0.28062080 [mEh]      -0.17609221 [kcal/mol]      -0.73676981 [kJ/mol]
    Dispersion sSAPT0              -3.70556486 [mEh]      -2.32527705 [kcal/mol]      -9.72895919 [kJ/mol]
  Total sSAPT0                     -3.77278197 [mEh]      -2.36745643 [kcal/mol]      -9.90543769 [kJ/mol]
  --------------------------------------------------------------------------------------------------------

*** Psi4 exiting successfully. Buy a developer a beer!
