                               Psi4 1.4a2.dev224

  ==> Input File <==

--------------------------------------------------------------------------
#Generated by lconvert.py for sapt job

memory 50 GB

molecule  {
0 1
  C       1.372190    1.012480    0.970830
  H       0.952180    2.014050    1.033120
  H       1.947420    0.926520    0.050720
  H       2.051700    0.851830    1.802950
  C       0.326740   -0.077650    0.988200
  O       0.618820   -1.252480    1.171280
  N      -0.950030    0.344890    0.773920
  H      -1.104670    1.322030    0.606110
  C      -2.059850   -0.577370    0.680150
  H      -1.669360   -1.566800    0.897180
  H      -2.834590   -0.331380    1.403660
  H      -2.490970   -0.578930   -0.319940
--
0 1
  C       2.796380    0.557740    6.443170
  H       2.913220    1.312150    5.664430
  H       2.710270    1.082620    7.394830
  H       3.708470   -0.036500    6.469980
  C       1.568110   -0.305650    6.185620
  H       1.473540   -1.051100    6.978670
  H       1.684530   -0.859110    5.251780
  C       0.285570    0.512970    6.120320
  H       0.174000    1.090700    7.043400
  H       0.364810    1.245780    5.310670
  C      -0.958780   -0.337370    5.903440
  H      -1.049580   -1.051860    6.724860
  H      -0.830980   -0.926310    4.993230
  C      -2.225620    0.502920    5.813330
  H      -2.158710    1.209970    4.985560
  H      -3.110960   -0.113100    5.659490
  H      -2.375980    1.079130    6.726550
units angstrom
no_reorient
symmetry c1
}

set {
scf_type DF
basis aug-cc-pvtz
freeze_core True
guess SAD
}
energy('sapt2+')
--------------------------------------------------------------------------

  //              Dimer HF             //
    Molecular point group: c1
  Charge       = 0
  Multiplicity = 1
  Basis Set: AUG-CC-PVTZ
    Blend: AUG-CC-PVTZ
  Basis Set: (AUG-CC-PVTZ AUX)
    Blend: AUG-CC-PVTZ-JKFIT
  @DF-RHF Final Energy:  -443.50728555418914
    Total Energy =                       -443.5072855541891386
  //            Monomer A HF           //
    Molecular point group: c1
  Multiplicity = 1
  Basis Set: AUG-CC-PVTZ
    Blend: AUG-CC-PVTZ
  Basis Set: (AUG-CC-PVTZ AUX)
    Blend: AUG-CC-PVTZ-JKFIT
  @DF-RHF Final Energy:  -247.10280512297371
    Total Energy =                       -247.1028051229736775
  //            Monomer B HF           //
    Molecular point group: c1

    Geometry (in Angstrom), charge = 0, multiplicity = 1:

       Center              X                  Y                   Z               Mass
    ------------   -----------------  -----------------  -----------------  -----------------
      Gh(C)           1.301856827384     0.971716308894    -2.516163017090    12.000000000000
      Gh(H)           0.881846827384     1.973286308894    -2.453873017090     1.007825032230
      Gh(H)           1.877086827384     0.885756308894    -3.436273017090     1.007825032230
      Gh(H)           1.981366827384     0.811066308894    -1.684043017090     1.007825032230
      Gh(C)           0.256406827384    -0.118413691106    -2.498793017090    12.000000000000
      Gh(O)           0.548486827384    -1.293243691106    -2.315713017090    15.994914619570
      Gh(N)          -1.020363172616     0.304126308894    -2.713073017090    14.003074004430
      Gh(H)          -1.175003172616     1.281266308894    -2.880883017090     1.007825032230
      Gh(C)          -2.130183172616    -0.618133691106    -2.806843017090    12.000000000000
      Gh(H)          -1.739693172616    -1.607563691106    -2.589813017090     1.007825032230
      Gh(H)          -2.904923172616    -0.372143691106    -2.083333017090     1.007825032230
      Gh(H)          -2.561303172616    -0.619693691106    -3.806933017090     1.007825032230
         C            2.726046827384     0.516976308894     2.956176982910    12.000000000000
         H            2.842886827384     1.271386308894     2.177436982910     1.007825032230
         H            2.639936827384     1.041856308894     3.907836982910     1.007825032230
         H            3.638136827384    -0.077263691106     2.982986982910     1.007825032230
         C            1.497776827384    -0.346413691106     2.698626982910    12.000000000000
         H            1.403206827384    -1.091863691106     3.491676982910     1.007825032230
         H            1.614196827384    -0.899873691106     1.764786982910     1.007825032230
         C            0.215236827384     0.472206308894     2.633326982910    12.000000000000
         H            0.103666827384     1.049936308894     3.556406982910     1.007825032230
         H            0.294476827384     1.205016308894     1.823676982910     1.007825032230
         C           -1.029113172616    -0.378133691106     2.416446982910    12.000000000000
         H           -1.119913172616    -1.092623691106     3.237866982910     1.007825032230
         H           -0.901313172616    -0.967073691106     1.506236982910     1.007825032230
         C           -2.295953172616     0.462156308894     2.326336982910    12.000000000000
         H           -2.229043172616     1.169206308894     1.498566982910     1.007825032230
         H           -3.181293172616    -0.153863691106     2.172496982910     1.007825032230
         H           -2.446313172616     1.038366308894     3.239556982910     1.007825032230

  Charge       = 0
  Multiplicity = 1
  Basis Set: AUG-CC-PVTZ
    Blend: AUG-CC-PVTZ
  Basis Set: (AUG-CC-PVTZ AUX)
    Blend: AUG-CC-PVTZ-JKFIT

    Orbital Energies [Eh]
    ---------------------

    Doubly Occupied:

       1A    -11.212608     2A    -11.212405     3A    -11.210111
       4A    -11.207216     5A    -11.207141     6A     -1.081286
       7A     -1.015236     8A     -0.918628     9A     -0.819913
      10A     -0.785039    11A     -0.647377    12A     -0.598165
      13A     -0.592757    14A     -0.553914    15A     -0.547202
      16A     -0.525073    17A     -0.494843    18A     -0.476030
      19A     -0.462093    20A     -0.459141    21A     -0.446208

  @DF-RHF Final Energy:  -196.40430086650002

   => Energetics <=

    Nuclear Repulsion Energy =            185.6770318948452996
    One-Electron Energy =                -631.2178955215172209
    Two-Electron Energy =                 249.1365627601718984
    Total Energy =                       -196.4043008665000229

  Dipole Moment: [D]
     X:     0.0026      Y:    -0.0834      Z:    -0.0051     Total:     0.0836

    SAPT Results
  --------------------------------------------------------------------------------------------------------
    Electrostatics                 -0.13338822 [mEh]      -0.08370237 [kcal/mol]      -0.35021073 [kJ/mol]
      Elst10,r                     -0.13243236 [mEh]      -0.08310256 [kcal/mol]      -0.34770111 [kJ/mol]
      Elst12,r                     -0.00095586 [mEh]      -0.00059981 [kcal/mol]      -0.00250962 [kJ/mol]

    Exchange                        0.05858869 [mEh]       0.03676496 [kcal/mol]       0.15382457 [kJ/mol]
      Exch10                        0.04737254 [mEh]       0.02972672 [kcal/mol]       0.12437659 [kJ/mol]
      Exch10(S^2)                   0.04737258 [mEh]       0.02972674 [kcal/mol]       0.12437668 [kJ/mol]
      Exch11(S^2)                  -0.00048890 [mEh]      -0.00030679 [kcal/mol]      -0.00128360 [kJ/mol]
      Exch12(S^2)                   0.01170504 [mEh]       0.00734502 [kcal/mol]       0.03073158 [kJ/mol]

    Induction                      -0.08303190 [mEh]      -0.05210330 [kcal/mol]      -0.21800022 [kJ/mol]
      Ind20,r                      -0.09707899 [mEh]      -0.06091799 [kcal/mol]      -0.25488086 [kJ/mol]
      Ind22                         0.01214347 [mEh]       0.00762014 [kcal/mol]       0.03188268 [kJ/mol]
      Exch-Ind20,r                  0.00535998 [mEh]       0.00336344 [kcal/mol]       0.01407264 [kJ/mol]
      Exch-Ind22                   -0.00067047 [mEh]      -0.00042073 [kcal/mol]      -0.00176033 [kJ/mol]
      delta HF,r (2)               -0.00278589 [mEh]      -0.00174817 [kcal/mol]      -0.00731435 [kJ/mol]

    Dispersion                     -1.40596605 [mEh]      -0.88225701 [kcal/mol]      -3.69136335 [kJ/mol]
      Disp20                       -1.40974702 [mEh]      -0.88462961 [kcal/mol]      -3.70129028 [kJ/mol]
      Disp21                        0.23237126 [mEh]       0.14581516 [kcal/mol]       0.61009065 [kJ/mol]
      Disp22 (SDQ)                  0.01831335 [mEh]       0.01149180 [kcal/mol]       0.04808168 [kJ/mol]
      Disp22 (T)                   -0.24722814 [mEh]      -0.15513800 [kcal/mol]      -0.64909740 [kJ/mol]
      Est. Disp22 (T)              -0.25718203 [mEh]      -0.16138416 [kcal/mol]      -0.67523134 [kJ/mol]
      Exch-Disp20                   0.01027841 [mEh]       0.00644980 [kcal/mol]       0.02698595 [kJ/mol]

  Total HF                         -0.17956472 [mEh]      -0.11267856 [kcal/mol]      -0.47144710 [kJ/mol]
  Total SAPT0                      -1.57903333 [mEh]      -0.99085837 [kcal/mol]      -4.14575143 [kJ/mol]
  Total SAPT2                      -1.55730005 [mEh]      -0.97722053 [kcal/mol]      -4.08869071 [kJ/mol]
  Total SAPT2+                     -1.56379748 [mEh]      -0.98129773 [kcal/mol]      -4.10574972 [kJ/mol]

  Special recipe for scaled SAPT0 (see Manual):
    Electrostatics sSAPT0          -0.13243236 [mEh]      -0.08310256 [kcal/mol]      -0.34770111 [kJ/mol]
    Exchange sSAPT0                 0.04737254 [mEh]       0.02972672 [kcal/mol]       0.12437659 [kJ/mol]
    Induction sSAPT0               -0.09450491 [mEh]      -0.05930273 [kcal/mol]      -0.24812261 [kJ/mol]
    Dispersion sSAPT0              -1.39946863 [mEh]      -0.87817983 [kcal/mol]      -3.67430439 [kJ/mol]
  Total sSAPT0                     -1.57903336 [mEh]      -0.99085839 [kcal/mol]      -4.14575152 [kJ/mol]
  --------------------------------------------------------------------------------------------------------

*** Psi4 exiting successfully. Buy a developer a beer!
