                               Psi4 1.4a2.dev224

  ==> Input File <==

--------------------------------------------------------------------------
#Generated by lconvert.py for sapt job

memory 50 GB

molecule  {
0 1
  C       1.372190    1.012480    0.970830
  H       0.952180    2.014050    1.033120
  H       1.947420    0.926520    0.050720
  H       2.051700    0.851830    1.802950
  C       0.326740   -0.077650    0.988200
  O       0.618820   -1.252480    1.171280
  N      -0.950030    0.344890    0.773920
  H      -1.104670    1.322030    0.606110
  C      -2.059850   -0.577370    0.680150
  H      -1.669360   -1.566800    0.897180
  H      -2.834590   -0.331380    1.403660
  H      -2.490970   -0.578930   -0.319940
--
0 1
  C       2.862400    0.603940    7.216490
  H       2.979240    1.358360    6.437740
  H       2.776290    1.128830    8.168150
  H       3.774490    0.009700    7.243300
  C       1.634130   -0.259440    6.958940
  H       1.539560   -1.004900    7.751990
  H       1.750550   -0.812910    6.025100
  C       0.351590    0.559170    6.893640
  H       0.240020    1.136910    7.816720
  H       0.430820    1.291990    6.083990
  C      -0.892770   -0.291160    6.676760
  H      -0.983570   -1.005650    7.498170
  H      -0.764960   -0.880100    5.766540
  C      -2.159610    0.549130    6.586640
  H      -2.092690    1.256180    5.758870
  H      -3.044950   -0.066890    6.432810
  H      -2.309960    1.125340    7.499860
units angstrom
no_reorient
symmetry c1
}

set {
scf_type DF
basis aug-cc-pvtz
freeze_core True
guess SAD
}
energy('sapt2+')
--------------------------------------------------------------------------

  //              Dimer HF             //
    Molecular point group: c1
  Charge       = 0
  Multiplicity = 1
  Basis Set: AUG-CC-PVTZ
    Blend: AUG-CC-PVTZ
  Basis Set: (AUG-CC-PVTZ AUX)
    Blend: AUG-CC-PVTZ-JKFIT
  @DF-RHF Final Energy:  -443.50717230193220
    Total Energy =                       -443.5071723019322008
  //            Monomer A HF           //
    Molecular point group: c1
  Multiplicity = 1
  Basis Set: AUG-CC-PVTZ
    Blend: AUG-CC-PVTZ
  Basis Set: (AUG-CC-PVTZ AUX)
    Blend: AUG-CC-PVTZ-JKFIT
  @DF-RHF Final Energy:  -247.10277254636733
    Total Energy =                       -247.1027725463673050
  //            Monomer B HF           //
    Molecular point group: c1

    Geometry (in Angstrom), charge = 0, multiplicity = 1:

       Center              X                  Y                   Z               Mass
    ------------   -----------------  -----------------  -----------------  -----------------
      Gh(C)           1.269066758843     0.948765806244    -2.900267501676    12.000000000000
      Gh(H)           0.849056758843     1.950335806244    -2.837977501676     1.007825032230
      Gh(H)           1.844296758843     0.862805806244    -3.820377501676     1.007825032230
      Gh(H)           1.948576758843     0.788115806244    -2.068147501676     1.007825032230
      Gh(C)           0.223616758843    -0.141364193756    -2.882897501676    12.000000000000
      Gh(O)           0.515696758843    -1.316194193756    -2.699817501676    15.994914619570
      Gh(N)          -1.053153241157     0.281175806244    -3.097177501676    14.003074004430
      Gh(H)          -1.207793241157     1.258315806244    -3.264987501676     1.007825032230
      Gh(C)          -2.162973241157    -0.641084193756    -3.190947501676    12.000000000000
      Gh(H)          -1.772483241157    -1.630514193756    -2.973917501676     1.007825032230
      Gh(H)          -2.937713241157    -0.395094193756    -2.467437501676     1.007825032230
      Gh(H)          -2.594093241157    -0.642644193756    -4.191037501676     1.007825032230
         C            2.759276758843     0.540225806244     3.345392498324    12.000000000000
         H            2.876116758843     1.294645806244     2.566642498324     1.007825032230
         H            2.673166758843     1.065115806244     4.297052498324     1.007825032230
         H            3.671366758843    -0.054014193756     3.372202498324     1.007825032230
         C            1.531006758843    -0.323154193756     3.087842498324    12.000000000000
         H            1.436436758843    -1.068614193756     3.880892498324     1.007825032230
         H            1.647426758843    -0.876624193756     2.154002498324     1.007825032230
         C            0.248466758843     0.495455806244     3.022542498324    12.000000000000
         H            0.136896758843     1.073195806244     3.945622498324     1.007825032230
         H            0.327696758843     1.228275806244     2.212892498324     1.007825032230
         C           -0.995893241157    -0.354874193756     2.805662498324    12.000000000000
         H           -1.086693241157    -1.069364193756     3.627072498324     1.007825032230
         H           -0.868083241157    -0.943814193756     1.895442498324     1.007825032230
         C           -2.262733241157     0.485415806244     2.715542498324    12.000000000000
         H           -2.195813241157     1.192465806244     1.887772498324     1.007825032230
         H           -3.148073241157    -0.130604193756     2.561712498324     1.007825032230
         H           -2.413083241157     1.061625806244     3.628762498324     1.007825032230

  Charge       = 0
  Multiplicity = 1
  Basis Set: AUG-CC-PVTZ
    Blend: AUG-CC-PVTZ
  Basis Set: (AUG-CC-PVTZ AUX)
    Blend: AUG-CC-PVTZ-JKFIT

    Orbital Energies [Eh]
    ---------------------

    Doubly Occupied:

       1A    -11.212608     2A    -11.212403     3A    -11.210111
       4A    -11.207214     5A    -11.207143     6A     -1.081286
       7A     -1.015237     8A     -0.918628     9A     -0.819912
      10A     -0.785037    11A     -0.647375    12A     -0.598166
      13A     -0.592756    14A     -0.553915    15A     -0.547203
      16A     -0.525070    17A     -0.494842    18A     -0.476028
      19A     -0.462091    20A     -0.459138    21A     -0.446212

  @DF-RHF Final Energy:  -196.40429464334889

   => Energetics <=

    Nuclear Repulsion Energy =            185.6768250282276824
    One-Electron Energy =                -631.2174912954594674
    Two-Electron Energy =                 249.1363716238829227
    Total Energy =                       -196.4042946433488908

  Dipole Moment: [D]
     X:     0.0026      Y:    -0.0834      Z:    -0.0051     Total:     0.0836

    SAPT Results
  --------------------------------------------------------------------------------------------------------
    Electrostatics                 -0.06532480 [mEh]      -0.04099193 [kcal/mol]      -0.17151024 [kJ/mol]
      Elst10,r                     -0.06760250 [mEh]      -0.04242121 [kcal/mol]      -0.17749034 [kJ/mol]
      Elst12,r                      0.00227770 [mEh]       0.00142928 [kcal/mol]       0.00598010 [kJ/mol]

    Exchange                        0.00419094 [mEh]       0.00262986 [kcal/mol]       0.01100332 [kJ/mol]
      Exch10                        0.00324079 [mEh]       0.00203363 [kcal/mol]       0.00850870 [kJ/mol]
      Exch10(S^2)                   0.00324080 [mEh]       0.00203363 [kcal/mol]       0.00850871 [kJ/mol]
      Exch11(S^2)                  -0.00009723 [mEh]      -0.00006101 [kcal/mol]      -0.00025527 [kJ/mol]
      Exch12(S^2)                   0.00104738 [mEh]       0.00065724 [kcal/mol]       0.00274989 [kJ/mol]

    Induction                      -0.03472556 [mEh]      -0.02179062 [kcal/mol]      -0.09117195 [kJ/mol]
      Ind20,r                      -0.04087668 [mEh]      -0.02565050 [kcal/mol]      -0.10732171 [kJ/mol]
      Ind22                         0.00607096 [mEh]       0.00380959 [kcal/mol]       0.01593931 [kJ/mol]
      Exch-Ind20,r                  0.00030982 [mEh]       0.00019442 [kcal/mol]       0.00081344 [kJ/mol]
      Exch-Ind22                   -0.00004601 [mEh]      -0.00002887 [kcal/mol]      -0.00012081 [kJ/mol]
      delta HF,r (2)               -0.00018365 [mEh]      -0.00011524 [kcal/mol]      -0.00048218 [kJ/mol]

    Dispersion                     -0.59943980 [mEh]      -0.37615415 [kcal/mol]      -1.57382897 [kJ/mol]
      Disp20                       -0.60851515 [mEh]      -0.38184902 [kcal/mol]      -1.59765631 [kJ/mol]
      Disp21                        0.11168623 [mEh]       0.07008417 [kcal/mol]       0.29323215 [kJ/mol]
      Disp22 (SDQ)                  0.00812471 [mEh]       0.00509833 [kcal/mol]       0.02133143 [kJ/mol]
      Disp22 (T)                   -0.10866383 [mEh]      -0.06818758 [kcal/mol]      -0.28529685 [kJ/mol]
      Est. Disp22 (T)              -0.11160310 [mEh]      -0.07003200 [kcal/mol]      -0.29301391 [kJ/mol]
      Exch-Disp20                   0.00086752 [mEh]       0.00054438 [kcal/mol]       0.00227767 [kJ/mol]

  Total HF                         -0.10511222 [mEh]      -0.06595891 [kcal/mol]      -0.27597209 [kJ/mol]
  Total SAPT0                      -0.71275985 [mEh]      -0.44726356 [kcal/mol]      -1.87135073 [kJ/mol]
  Total SAPT2                      -0.70350705 [mEh]      -0.44145734 [kcal/mol]      -1.84705751 [kJ/mol]
  Total SAPT2+                     -0.69529921 [mEh]      -0.43630684 [kcal/mol]      -1.82550784 [kJ/mol]

  Special recipe for scaled SAPT0 (see Manual):
    Electrostatics sSAPT0          -0.06760250 [mEh]      -0.04242121 [kcal/mol]      -0.17749034 [kJ/mol]
    Exchange sSAPT0                 0.00324079 [mEh]       0.00203363 [kcal/mol]       0.00850870 [kJ/mol]
    Induction sSAPT0               -0.04075051 [mEh]      -0.02557133 [kcal/mol]      -0.10699045 [kJ/mol]
    Dispersion sSAPT0              -0.60764763 [mEh]      -0.38130465 [kcal/mol]      -1.59537864 [kJ/mol]
  Total sSAPT0                     -0.71275985 [mEh]      -0.44726356 [kcal/mol]      -1.87135073 [kJ/mol]
  --------------------------------------------------------------------------------------------------------

*** Psi4 exiting successfully. Buy a developer a beer!
