                               Psi4 1.4a2.dev224

  ==> Input File <==

--------------------------------------------------------------------------
#Generated by lconvert.py for sapt job

memory 25 GB

molecule  {
0 1
  C       0.729190    1.113100    0.326730
  H       1.303220    2.014220    0.159160
  C       1.375090   -0.119370    0.412780
  H       2.450520   -0.174620    0.313310
  C       0.635040   -1.280550    0.629380
  H       1.136330   -2.236020    0.700220
  C      -0.750990   -1.209650    0.757890
  H      -1.324530   -2.111410    0.924200
  C      -1.397030    0.022670    0.673090
  H      -2.472420    0.078490    0.774000
  C      -0.656900    1.184300    0.458340
  H      -1.157830    2.140590    0.395100
--
0 1
  C       0.404340    0.513680    6.193690
  H       0.526470    0.739170    5.143260
  C      -0.686740   -0.241210    6.621020
  H      -1.407240   -0.597730    5.897330
  C      -0.847440   -0.535340    7.973970
  H      -1.694550   -1.121310    8.304220
  C       0.084440   -0.074290    8.902470
  H      -0.039450   -0.302250    9.952470
  C       1.176030    0.680820    8.477230
  H       1.899150    1.038650    9.197610
  C       1.334830    0.974300    7.123730
  H       2.182090    1.560380    6.793690
units angstrom
no_reorient
symmetry c1
}

set {
scf_type DF
basis aug-cc-pvtz
freeze_core True
guess SAD
}
energy('sapt2+')
--------------------------------------------------------------------------

  //              Dimer HF             //
    Molecular point group: c1
  Charge       = 0
  Multiplicity = 1
  Basis Set: AUG-CC-PVTZ
    Blend: AUG-CC-PVTZ
  Basis Set: (AUG-CC-PVTZ AUX)
    Blend: AUG-CC-PVTZ-JKFIT
  @DF-RHF Final Energy:  -461.56279262705038
    Total Energy =                       -461.5627926270503849
  //            Monomer A HF           //
    Molecular point group: c1
  Multiplicity = 1
  Basis Set: AUG-CC-PVTZ
    Blend: AUG-CC-PVTZ
  Basis Set: (AUG-CC-PVTZ AUX)
    Blend: AUG-CC-PVTZ-JKFIT
  @DF-RHF Final Energy:  -230.78127498765207
    Total Energy =                       -230.7812749876520684
  //            Monomer B HF           //
    Molecular point group: c1

    Geometry (in Angstrom), charge = 0, multiplicity = 1:

       Center              X                  Y                   Z               Mass
    ------------   -----------------  -----------------  -----------------  -----------------
      Gh(C)           0.612522732592     1.027396936959    -3.719157440255    12.000000000000
      Gh(H)           1.186552732592     1.928516936959    -3.886727440255     1.007825032230
      Gh(C)           1.258422732592    -0.205073063041    -3.633107440255    12.000000000000
      Gh(H)           2.333852732592    -0.260323063041    -3.732577440255     1.007825032230
      Gh(C)           0.518372732592    -1.366253063041    -3.416507440255    12.000000000000
      Gh(H)           1.019662732592    -2.321723063041    -3.345667440255     1.007825032230
      Gh(C)          -0.867657267408    -1.295353063041    -3.287997440255    12.000000000000
      Gh(H)          -1.441197267408    -2.197113063041    -3.121687440255     1.007825032230
      Gh(C)          -1.513697267408    -0.063033063041    -3.372797440255    12.000000000000
      Gh(H)          -2.589087267408    -0.007213063041    -3.271887440255     1.007825032230
      Gh(C)          -0.773567267408     1.098596936959    -3.587547440255    12.000000000000
      Gh(H)          -1.274497267408     2.054886936959    -3.650787440255     1.007825032230
         C            0.287672732592     0.427976936959     2.147802559745    12.000000000000
         H            0.409802732592     0.653466936959     1.097372559745     1.007825032230
         C           -0.803407267408    -0.326913063041     2.575132559745    12.000000000000
         H           -1.523907267408    -0.683433063041     1.851442559745     1.007825032230
         C           -0.964107267408    -0.621043063041     3.928082559745    12.000000000000
         H           -1.811217267408    -1.207013063041     4.258332559745     1.007825032230
         C           -0.032227267408    -0.159993063041     4.856582559745    12.000000000000
         H           -0.156117267408    -0.387953063041     5.906582559745     1.007825032230
         C            1.059362732592     0.595116936959     4.431342559745    12.000000000000
         H            1.782482732592     0.952946936959     5.151722559745     1.007825032230
         C            1.218162732592     0.888596936959     3.077842559745    12.000000000000
         H            2.065422732592     1.474676936959     2.747802559745     1.007825032230

  Charge       = 0
  Multiplicity = 1
  Basis Set: AUG-CC-PVTZ
    Blend: AUG-CC-PVTZ
  Basis Set: (AUG-CC-PVTZ AUX)
    Blend: AUG-CC-PVTZ-JKFIT

    Orbital Energies [Eh]
    ---------------------

    Doubly Occupied:

       1A    -11.236369     2A    -11.235810     3A    -11.235770
       4A    -11.234563     5A    -11.234527     6A    -11.233936
       7A     -1.150372     8A     -1.015025     9A     -1.014623
      10A     -0.824291    11A     -0.824044    12A     -0.709682
      13A     -0.644168    14A     -0.619183    15A     -0.588395
      16A     -0.587830    17A     -0.502368    18A     -0.495400
      19A     -0.494479    20A     -0.336912    21A     -0.336738

  @DF-RHF Final Energy:  -230.78124654607836

   => Energetics <=

    Nuclear Repulsion Energy =            203.6768706114552856
    One-Electron Energy =                -713.8072687743079996
    Two-Electron Energy =                 279.3491516167743498
    Total Energy =                       -230.7812465460783642

  Dipole Moment: [D]
     X:     0.0007      Y:    -0.0009      Z:    -0.0015     Total:     0.0019

    SAPT Results
  --------------------------------------------------------------------------------------------------------
    Electrostatics                 -0.20235267 [mEh]      -0.12697822 [kcal/mol]      -0.53127686 [kJ/mol]
      Elst10,r                     -0.25570445 [mEh]      -0.16045696 [kcal/mol]      -0.67135193 [kJ/mol]
      Elst12,r                      0.05335178 [mEh]       0.03347875 [kcal/mol]       0.14007508 [kJ/mol]

    Exchange                        0.00696043 [mEh]       0.00436773 [kcal/mol]       0.01827460 [kJ/mol]
      Exch10                        0.00601510 [mEh]       0.00377453 [kcal/mol]       0.01579265 [kJ/mol]
      Exch10(S^2)                   0.00601513 [mEh]       0.00377455 [kcal/mol]       0.01579272 [kJ/mol]
      Exch11(S^2)                  -0.00016166 [mEh]      -0.00010144 [kcal/mol]      -0.00042443 [kJ/mol]
      Exch12(S^2)                   0.00110698 [mEh]       0.00069464 [kcal/mol]       0.00290638 [kJ/mol]

    Induction                      -0.02069264 [mEh]      -0.01298483 [kcal/mol]      -0.05432853 [kJ/mol]
      Ind20,r                      -0.02195039 [mEh]      -0.01377408 [kcal/mol]      -0.05763074 [kJ/mol]
      Ind22                         0.00073724 [mEh]       0.00046262 [kcal/mol]       0.00193562 [kJ/mol]
      Exch-Ind20,r                  0.00077137 [mEh]       0.00048404 [kcal/mol]       0.00202523 [kJ/mol]
      Exch-Ind22                   -0.00002591 [mEh]      -0.00001626 [kcal/mol]      -0.00006802 [kJ/mol]
      delta HF,r (2)               -0.00022495 [mEh]      -0.00014116 [kcal/mol]      -0.00059062 [kJ/mol]

    Dispersion                     -0.54446188 [mEh]      -0.34165499 [kcal/mol]      -1.42948448 [kJ/mol]
      Disp20                       -0.61909916 [mEh]      -0.38849059 [kcal/mol]      -1.62544462 [kJ/mol]
      Disp21                        0.19522695 [mEh]       0.12250676 [kcal/mol]       0.51256828 [kJ/mol]
      Disp22 (SDQ)                  0.02669896 [mEh]       0.01675385 [kcal/mol]       0.07009810 [kJ/mol]
      Disp22 (T)                   -0.14486626 [mEh]      -0.09090495 [kcal/mol]      -0.38034630 [kJ/mol]
      Est. Disp22 (T)              -0.14929851 [mEh]      -0.09368623 [kcal/mol]      -0.39198318 [kJ/mol]
      Exch-Disp20                   0.00200988 [mEh]       0.00126122 [kcal/mol]       0.00527694 [kJ/mol]

  Total HF                         -0.27109332 [mEh]      -0.17011363 [kcal/mol]      -0.71175541 [kJ/mol]
  Total SAPT0                      -0.88818260 [mEh]      -0.55734300 [kcal/mol]      -2.33192310 [kJ/mol]
  Total SAPT2                      -0.83317417 [mEh]      -0.52282468 [kcal/mol]      -2.18749847 [kJ/mol]
  Total SAPT2+                     -0.76054677 [mEh]      -0.47725030 [kcal/mol]      -1.99681527 [kJ/mol]

  Special recipe for scaled SAPT0 (see Manual):
    Electrostatics sSAPT0          -0.25570445 [mEh]      -0.16045696 [kcal/mol]      -0.67135193 [kJ/mol]
    Exchange sSAPT0                 0.00601510 [mEh]       0.00377453 [kcal/mol]       0.01579265 [kJ/mol]
    Induction sSAPT0               -0.02140397 [mEh]      -0.01343120 [kcal/mol]      -0.05619613 [kJ/mol]
    Dispersion sSAPT0              -0.61708928 [mEh]      -0.38722937 [kcal/mol]      -1.62016768 [kJ/mol]
  Total sSAPT0                     -0.88818260 [mEh]      -0.55734300 [kcal/mol]      -2.33192310 [kJ/mol]
  --------------------------------------------------------------------------------------------------------

*** Psi4 exiting successfully. Buy a developer a beer!
