                               Psi4 1.4a2.dev224

  ==> Input File <==

--------------------------------------------------------------------------
#Generated by lconvert.py for sapt job

memory 25 GB

molecule  {
0 1
  C       0.729190    1.113100    0.326730
  H       1.303220    2.014220    0.159160
  C       1.375090   -0.119370    0.412780
  H       2.450520   -0.174620    0.313310
  C       0.635040   -1.280550    0.629380
  H       1.136330   -2.236020    0.700220
  C      -0.750990   -1.209650    0.757890
  H      -1.324530   -2.111410    0.924200
  C      -1.397030    0.022670    0.673090
  H      -2.472420    0.078490    0.774000
  C      -0.656900    1.184300    0.458340
  H      -1.157830    2.140590    0.395100
--
0 1
  C       0.533160    0.702440    7.296390
  H       0.655290    0.927920    6.245960
  C      -0.557920   -0.052460    7.723730
  H      -1.278420   -0.408980    7.000030
  C      -0.718620   -0.346590    9.076680
  H      -1.565730   -0.932560    9.406920
  C       0.213260    0.114470   10.005170
  H       0.089370   -0.113500   11.055180
  C       1.304850    0.869570    9.579930
  H       2.027970    1.227400   10.300310
  C       1.463650    1.163050    8.226440
  H       2.310910    1.749130    7.896390
units angstrom
no_reorient
symmetry c1
}

set {
scf_type DF
basis aug-cc-pvtz
freeze_core True
guess SAD
}
energy('sapt2+')
--------------------------------------------------------------------------

  //              Dimer HF             //
    Molecular point group: c1
  Charge       = 0
  Multiplicity = 1
  Basis Set: AUG-CC-PVTZ
    Blend: AUG-CC-PVTZ
  Basis Set: (AUG-CC-PVTZ AUX)
    Blend: AUG-CC-PVTZ-JKFIT
  @DF-RHF Final Energy:  -461.56262373192340
    Total Energy =                       -461.5626237319233951
  //            Monomer A HF           //
    Molecular point group: c1
  Multiplicity = 1
  Basis Set: AUG-CC-PVTZ
    Blend: AUG-CC-PVTZ
  Basis Set: (AUG-CC-PVTZ AUX)
    Blend: AUG-CC-PVTZ-JKFIT
  @DF-RHF Final Energy:  -230.78125321302542
    Total Energy =                       -230.7812532130254226
  //            Monomer B HF           //
    Molecular point group: c1

    Geometry (in Angstrom), charge = 0, multiplicity = 1:

       Center              X                  Y                   Z               Mass
    ------------   -----------------  -----------------  -----------------  -----------------
      Gh(C)           0.548112732592     0.933020399423    -4.270509811124    12.000000000000
      Gh(H)           1.122142732592     1.834140399423    -4.438079811124     1.007825032230
      Gh(C)           1.194012732592    -0.299449600577    -4.184459811124    12.000000000000
      Gh(H)           2.269442732592    -0.354699600577    -4.283929811124     1.007825032230
      Gh(C)           0.453962732592    -1.460629600577    -3.967859811124    12.000000000000
      Gh(H)           0.955252732592    -2.416099600577    -3.897019811124     1.007825032230
      Gh(C)          -0.932067267408    -1.389729600577    -3.839349811124    12.000000000000
      Gh(H)          -1.505607267408    -2.291489600577    -3.673039811124     1.007825032230
      Gh(C)          -1.578107267408    -0.157409600577    -3.924149811124    12.000000000000
      Gh(H)          -2.653497267408    -0.101589600577    -3.823239811124     1.007825032230
      Gh(C)          -0.837977267408     1.004220399423    -4.138899811124    12.000000000000
      Gh(H)          -1.338907267408     1.960510399423    -4.202139811124     1.007825032230
         C            0.352082732592     0.522360399423     2.699150188876    12.000000000000
         H            0.474212732592     0.747840399423     1.648720188876     1.007825032230
         C           -0.738997267408    -0.232539600577     3.126490188876    12.000000000000
         H           -1.459497267408    -0.589059600577     2.402790188876     1.007825032230
         C           -0.899697267408    -0.526669600577     4.479440188876    12.000000000000
         H           -1.746807267408    -1.112639600577     4.809680188876     1.007825032230
         C            0.032182732592    -0.065609600577     5.407930188876    12.000000000000
         H           -0.091707267408    -0.293579600577     6.457940188876     1.007825032230
         C            1.123772732592     0.689490399423     4.982690188876    12.000000000000
         H            1.846892732592     1.047320399423     5.703070188876     1.007825032230
         C            1.282572732592     0.982970399423     3.629200188876    12.000000000000
         H            2.129832732592     1.569050399423     3.299150188876     1.007825032230

  Charge       = 0
  Multiplicity = 1
  Basis Set: AUG-CC-PVTZ
    Blend: AUG-CC-PVTZ
  Basis Set: (AUG-CC-PVTZ AUX)
    Blend: AUG-CC-PVTZ-JKFIT

    Orbital Energies [Eh]
    ---------------------

    Doubly Occupied:

       1A    -11.236372     2A    -11.235812     3A    -11.235773
       4A    -11.234566     5A    -11.234530     6A    -11.233938
       7A     -1.150375     8A     -1.015027     9A     -1.014628
      10A     -0.824294    11A     -0.824046    12A     -0.709685
      13A     -0.644170    14A     -0.619186    15A     -0.588397
      16A     -0.587834    17A     -0.502367    18A     -0.495404
      19A     -0.494481    20A     -0.336914    21A     -0.336741

  @DF-RHF Final Energy:  -230.78123670845673

   => Energetics <=

    Nuclear Repulsion Energy =            203.6769304630967099
    One-Electron Energy =                -713.8072599664109248
    Two-Electron Energy =                 279.3490927948574836
    Total Energy =                       -230.7812367084567313

  Dipole Moment: [D]
     X:     0.0007      Y:    -0.0009      Z:    -0.0016     Total:     0.0020

    SAPT Results
  --------------------------------------------------------------------------------------------------------
    Electrostatics                 -0.10067681 [mEh]      -0.06317565 [kcal/mol]      -0.26432694 [kJ/mol]
      Elst10,r                     -0.12782164 [mEh]      -0.08020929 [kcal/mol]      -0.33559566 [kJ/mol]
      Elst12,r                      0.02714482 [mEh]       0.01703363 [kcal/mol]       0.07126873 [kJ/mol]

    Exchange                        0.00015375 [mEh]       0.00009648 [kcal/mol]       0.00040366 [kJ/mol]
      Exch10                        0.00013480 [mEh]       0.00008459 [kcal/mol]       0.00035392 [kJ/mol]
      Exch10(S^2)                   0.00013480 [mEh]       0.00008459 [kcal/mol]       0.00035392 [kJ/mol]
      Exch11(S^2)                  -0.00000816 [mEh]      -0.00000512 [kcal/mol]      -0.00002142 [kJ/mol]
      Exch12(S^2)                   0.00002710 [mEh]       0.00001701 [kcal/mol]       0.00007116 [kJ/mol]

    Induction                      -0.00586425 [mEh]      -0.00367987 [kcal/mol]      -0.01539658 [kJ/mol]
      Ind20,r                      -0.00636015 [mEh]      -0.00399105 [kcal/mol]      -0.01669856 [kJ/mol]
      Ind22                         0.00026003 [mEh]       0.00016317 [kcal/mol]       0.00068270 [kJ/mol]
      Exch-Ind20,r                  0.00001642 [mEh]       0.00001031 [kcal/mol]       0.00004312 [kJ/mol]
      Exch-Ind22                   -0.00000067 [mEh]      -0.00000042 [kcal/mol]      -0.00000176 [kJ/mol]
      delta HF,r (2)                0.00022012 [mEh]       0.00013812 [kcal/mol]       0.00057791 [kJ/mol]

    Dispersion                     -0.19363213 [mEh]      -0.12150600 [kcal/mol]      -0.50838109 [kJ/mol]
      Disp20                       -0.22384751 [mEh]      -0.14046643 [kcal/mol]      -0.58771155 [kJ/mol]
      Disp21                        0.07729495 [mEh]       0.04850331 [kcal/mol]       0.20293786 [kJ/mol]
      Disp22 (SDQ)                  0.00799092 [mEh]       0.00501438 [kcal/mol]       0.02098016 [kJ/mol]
      Disp22 (T)                   -0.05420101 [mEh]      -0.03401165 [kcal/mol]      -0.14230473 [kJ/mol]
      Est. Disp22 (T)              -0.05513419 [mEh]      -0.03459723 [kcal/mol]      -0.14475481 [kJ/mol]
      Exch-Disp20                   0.00006370 [mEh]       0.00003997 [kcal/mol]       0.00016725 [kJ/mol]

  Total HF                         -0.13381044 [mEh]      -0.08396732 [kcal/mol]      -0.35131927 [kJ/mol]
  Total SAPT0                      -0.35759425 [mEh]      -0.22439378 [kcal/mol]      -0.93886356 [kJ/mol]
  Total SAPT2                      -0.33017112 [mEh]      -0.20718551 [kcal/mol]      -0.86686415 [kJ/mol]
  Total SAPT2+                     -0.30001945 [mEh]      -0.18826505 [kcal/mol]      -0.78770095 [kJ/mol]

  Special recipe for scaled SAPT0 (see Manual):
    Electrostatics sSAPT0          -0.12782164 [mEh]      -0.08020929 [kcal/mol]      -0.33559566 [kJ/mol]
    Exchange sSAPT0                 0.00013480 [mEh]       0.00008459 [kcal/mol]       0.00035392 [kJ/mol]
    Induction sSAPT0               -0.00612361 [mEh]      -0.00384262 [kcal/mol]      -0.01607753 [kJ/mol]
    Dispersion sSAPT0              -0.22378380 [mEh]      -0.14042646 [kcal/mol]      -0.58754430 [kJ/mol]
  Total sSAPT0                     -0.35759425 [mEh]      -0.22439378 [kcal/mol]      -0.93886356 [kJ/mol]
  --------------------------------------------------------------------------------------------------------

*** Psi4 exiting successfully. Buy a developer a beer!
