                               Psi4 1.4a2.dev224

  ==> Input File <==

--------------------------------------------------------------------------
#Generated by lconvert.py for sapt job

memory 25 GB

molecule  {
0 1
  C       0.729190    1.113100    0.326730
  H       1.303220    2.014220    0.159160
  C       1.375090   -0.119370    0.412780
  H       2.450520   -0.174620    0.313310
  C       0.635040   -1.280550    0.629380
  H       1.136330   -2.236020    0.700220
  C      -0.750990   -1.209650    0.757890
  H      -1.324530   -2.111410    0.924200
  C      -1.397030    0.022670    0.673090
  H      -2.472420    0.078490    0.774000
  C      -0.656900    1.184300    0.458340
  H      -1.157830    2.140590    0.395100
--
0 1
  C       0.275520    0.324930    5.090980
  H       0.397650    0.550420    4.040560
  C      -0.815560   -0.429960    5.518320
  H      -1.536060   -0.786480    4.794620
  C      -0.976260   -0.724090    6.871270
  H      -1.823370   -1.310060    7.201520
  C      -0.044380   -0.263040    7.799760
  H      -0.168270   -0.491000    8.849770
  C       1.047210    0.492070    7.374520
  H       1.770330    0.849900    8.094910
  C       1.206010    0.785550    6.021030
  H       2.053270    1.371630    5.690980
units angstrom
no_reorient
symmetry c1
}

set {
scf_type DF
basis aug-cc-pvtz
freeze_core True
guess SAD
}
energy('sapt2+')
--------------------------------------------------------------------------

  //              Dimer HF             //
    Molecular point group: c1
  Charge       = 0
  Multiplicity = 1
  Basis Set: AUG-CC-PVTZ
    Blend: AUG-CC-PVTZ
  Basis Set: (AUG-CC-PVTZ AUX)
    Blend: AUG-CC-PVTZ-JKFIT
  @DF-RHF Final Energy:  -461.56306928776155
    Total Energy =                       -461.5630692877615502
  //            Monomer A HF           //
    Molecular point group: c1
  Multiplicity = 1
  Basis Set: AUG-CC-PVTZ
    Blend: AUG-CC-PVTZ
  Basis Set: (AUG-CC-PVTZ AUX)
    Blend: AUG-CC-PVTZ-JKFIT
  @DF-RHF Final Energy:  -230.78133063378763
    Total Energy =                       -230.7813306337876043
  //            Monomer B HF           //
    Molecular point group: c1

    Geometry (in Angstrom), charge = 0, multiplicity = 1:

       Center              X                  Y                   Z               Mass
    ------------   -----------------  -----------------  -----------------  -----------------
      Gh(C)           0.676932732592     1.121771936959    -3.167805004820    12.000000000000
      Gh(H)           1.250962732592     2.022891936959    -3.335375004820     1.007825032230
      Gh(C)           1.322832732592    -0.110698063041    -3.081755004820    12.000000000000
      Gh(H)           2.398262732592    -0.165948063041    -3.181225004820     1.007825032230
      Gh(C)           0.582782732592    -1.271878063041    -2.865155004820    12.000000000000
      Gh(H)           1.084072732592    -2.227348063041    -2.794315004820     1.007825032230
      Gh(C)          -0.803247267408    -1.200978063041    -2.736645004820    12.000000000000
      Gh(H)          -1.376787267408    -2.102738063041    -2.570335004820     1.007825032230
      Gh(C)          -1.449287267408     0.031341936959    -2.821445004820    12.000000000000
      Gh(H)          -2.524677267408     0.087161936959    -2.720535004820     1.007825032230
      Gh(C)          -0.709157267408     1.192971936959    -3.036195004820    12.000000000000
      Gh(H)          -1.210087267408     2.149261936959    -3.099435004820     1.007825032230
         C            0.223262732592     0.333601936959     1.596444995180    12.000000000000
         H            0.345392732592     0.559091936959     0.546024995180     1.007825032230
         C           -0.867817267408    -0.421288063041     2.023784995180    12.000000000000
         H           -1.588317267408    -0.777808063041     1.300084995180     1.007825032230
         C           -1.028517267408    -0.715418063041     3.376734995180    12.000000000000
         H           -1.875627267408    -1.301388063041     3.706984995180     1.007825032230
         C           -0.096637267408    -0.254368063041     4.305224995180    12.000000000000
         H           -0.220527267408    -0.482328063041     5.355234995180     1.007825032230
         C            0.994952732592     0.500741936959     3.879984995180    12.000000000000
         H            1.718072732592     0.858571936959     4.600374995180     1.007825032230
         C            1.153752732592     0.794221936959     2.526494995180    12.000000000000
         H            2.001012732592     1.380301936959     2.196444995180     1.007825032230

  Charge       = 0
  Multiplicity = 1
  Basis Set: AUG-CC-PVTZ
    Blend: AUG-CC-PVTZ
  Basis Set: (AUG-CC-PVTZ AUX)
    Blend: AUG-CC-PVTZ-JKFIT

    Orbital Energies [Eh]
    ---------------------

    Doubly Occupied:

       1A    -11.236365     2A    -11.235805     3A    -11.235766
       4A    -11.234559     5A    -11.234523     6A    -11.233931
       7A     -1.150370     8A     -1.015020     9A     -1.014619
      10A     -0.824286    11A     -0.824039    12A     -0.709677
      13A     -0.644163    14A     -0.619178    15A     -0.588389
      16A     -0.587825    17A     -0.502369    18A     -0.495397
      19A     -0.494472    20A     -0.336909    21A     -0.336736

  @DF-RHF Final Energy:  -230.78126844593589

   => Energetics <=

    Nuclear Repulsion Energy =            203.6769305289748502
    One-Electron Energy =                -713.8076100349910575
    Two-Electron Energy =                 279.3494110600803424
    Total Energy =                       -230.7812684459358934

  Dipole Moment: [D]
     X:     0.0007      Y:    -0.0009      Z:    -0.0014     Total:     0.0018

    SAPT Results
  --------------------------------------------------------------------------------------------------------
    Electrostatics                 -0.51427464 [mEh]      -0.32271221 [kcal/mol]      -1.35022787 [kJ/mol]
      Elst10,r                     -0.61152197 [mEh]      -0.38373583 [kcal/mol]      -1.60555070 [kJ/mol]
      Elst12,r                      0.09724733 [mEh]       0.06102362 [kcal/mol]       0.25532283 [kJ/mol]

    Exchange                        0.27848382 [mEh]       0.17475124 [kcal/mol]       0.73115917 [kJ/mol]
      Exch10                        0.25116405 [mEh]       0.15760782 [kcal/mol]       0.65943113 [kJ/mol]
      Exch10(S^2)                   0.25115369 [mEh]       0.15760132 [kcal/mol]       0.65940392 [kJ/mol]
      Exch11(S^2)                   0.00208341 [mEh]       0.00130736 [kcal/mol]       0.00547000 [kJ/mol]
      Exch12(S^2)                   0.02523636 [mEh]       0.01583605 [kcal/mol]       0.06625804 [kJ/mol]

    Induction                      -0.11097306 [mEh]      -0.06963664 [kcal/mol]      -0.29135972 [kJ/mol]
      Ind20,r                      -0.12137849 [mEh]      -0.07616615 [kcal/mol]      -0.31867917 [kJ/mol]
      Ind22                        -0.00161972 [mEh]      -0.00101639 [kcal/mol]      -0.00425258 [kJ/mol]
      Exch-Ind20,r                  0.03722841 [mEh]       0.02336118 [kcal/mol]       0.09774317 [kJ/mol]
      Exch-Ind22                    0.00049679 [mEh]       0.00031174 [kcal/mol]       0.00130432 [kJ/mol]
      delta HF,r (2)               -0.02570005 [mEh]      -0.01612702 [kcal/mol]      -0.06747546 [kJ/mol]

    Dispersion                     -1.95908743 [mEh]      -1.22934592 [kcal/mol]      -5.14358334 [kJ/mol]
      Disp20                       -2.20988042 [mEh]      -1.38672090 [kcal/mol]      -5.80204024 [kJ/mol]
      Disp21                        0.59087123 [mEh]       0.37077729 [kcal/mol]       1.55133219 [kJ/mol]
      Disp22 (SDQ)                  0.11686280 [mEh]       0.07333251 [kcal/mol]       0.30682324 [kJ/mol]
      Disp22 (T)                   -0.48624399 [mEh]      -0.30512271 [kcal/mol]      -1.27663342 [kJ/mol]
      Est. Disp22 (T)              -0.51304089 [mEh]      -0.32193802 [kcal/mol]      -1.34698867 [kJ/mol]
      Exch-Disp20                   0.05609985 [mEh]       0.03520319 [kcal/mol]       0.14729013 [kJ/mol]

  Total HF                         -0.47020804 [mEh]      -0.29506000 [kcal/mol]      -1.23453103 [kJ/mol]
  Total SAPT0                      -2.62398861 [mEh]      -1.64657771 [kcal/mol]      -6.88928113 [kJ/mol]
  Total SAPT2                      -2.50054444 [mEh]      -1.56911533 [kcal/mol]      -6.56517852 [kJ/mol]
  Total SAPT2+                     -2.30585130 [mEh]      -1.44694354 [kcal/mol]      -6.05401176 [kJ/mol]

  Special recipe for scaled SAPT0 (see Manual):
    Electrostatics sSAPT0          -0.61152197 [mEh]      -0.38373583 [kcal/mol]      -1.60555070 [kJ/mol]
    Exchange sSAPT0                 0.25116405 [mEh]       0.15760782 [kcal/mol]       0.65943113 [kJ/mol]
    Induction sSAPT0               -0.10984551 [mEh]      -0.06892910 [kcal/mol]      -0.28839936 [kJ/mol]
    Dispersion sSAPT0              -2.15377362 [mEh]      -1.35151335 [kcal/mol]      -5.65473186 [kJ/mol]
  Total sSAPT0                     -2.62397705 [mEh]      -1.64657046 [kcal/mol]      -6.88925080 [kJ/mol]
  --------------------------------------------------------------------------------------------------------

*** Psi4 exiting successfully. Buy a developer a beer!
