                               Psi4 1.4a2.dev224

  ==> Input File <==

--------------------------------------------------------------------------
#Generated by lconvert.py for sapt job

memory 50 GB

molecule  {
0 1
  N       1.322760   -0.010380    1.019180
  C       0.651290   -1.148990    0.796800
  H       1.200420   -2.065530    0.973670
  C      -0.672680   -1.194710    0.366660
  H      -1.157190   -2.147320    0.206460
  C      -1.347200    0.003130    0.152140
  H      -2.375360    0.008400   -0.182290
  C      -0.664560    1.194090    0.379000
  H      -1.142630    2.151560    0.228720
  C       0.658900    1.134980    0.808860
  H       1.214100    2.045910    0.995440
--
0 1
  N      -0.343950   -0.014450    9.468490
  C       0.526720   -0.020060    8.449080
  H       1.574580   -0.018820    8.723380
  C       0.153340   -0.027130    7.107250
  H       0.900800   -0.031300    6.326150
  C      -1.202710   -0.028550    6.794830
  H      -1.532440   -0.034000    5.764550
  C      -2.120810   -0.022830    7.840000
  H      -3.185260   -0.023680    7.651270
  C      -1.645210   -0.015910    9.148960
  H      -2.337390   -0.011330    9.982160
units angstrom
no_reorient
symmetry c1
}

set {
scf_type DF
basis aug-cc-pvtz
freeze_core True
guess SAD
}
energy('sapt2+')
--------------------------------------------------------------------------

  //              Dimer HF             //
    Molecular point group: c1
  Charge       = 0
  Multiplicity = 1
  Basis Set: AUG-CC-PVTZ
    Blend: AUG-CC-PVTZ
  Basis Set: (AUG-CC-PVTZ AUX)
    Blend: AUG-CC-PVTZ-JKFIT
  @DF-RHF Final Energy:  -493.55764015286883
    Total Energy =                       -493.5576401528687711
  //            Monomer A HF           //
    Molecular point group: c1
  Multiplicity = 1
  Basis Set: AUG-CC-PVTZ
    Blend: AUG-CC-PVTZ
  Basis Set: (AUG-CC-PVTZ AUX)
    Blend: AUG-CC-PVTZ-JKFIT
  @DF-RHF Final Energy:  -246.77865558930642
    Total Energy =                       -246.7786555893064246
  //            Monomer B HF           //
    Molecular point group: c1

    Geometry (in Angstrom), charge = 0, multiplicity = 1:

       Center              X                  Y                   Z               Mass
    ------------   -----------------  -----------------  -----------------  -----------------
      Gh(N)           1.709531799715     0.002186408598    -3.345389411367    14.003074004430
      Gh(C)           1.038061799715    -1.136423591402    -3.567769411367    12.000000000000
      Gh(H)           1.587191799715    -2.052963591402    -3.390899411367     1.007825032230
      Gh(C)          -0.285908200285    -1.182143591402    -3.997909411367    12.000000000000
      Gh(H)          -0.770418200285    -2.134753591402    -4.158109411367     1.007825032230
      Gh(C)          -0.960428200285     0.015696408598    -4.212429411367    12.000000000000
      Gh(H)          -1.988588200285     0.020966408598    -4.546859411367     1.007825032230
      Gh(C)          -0.277788200285     1.206656408598    -3.985569411367    12.000000000000
      Gh(H)          -0.755858200285     2.164126408598    -4.135849411367     1.007825032230
      Gh(C)           1.045671799715     1.147546408598    -3.555709411367    12.000000000000
      Gh(H)           1.600871799715     2.058476408598    -3.369129411367     1.007825032230
         N            0.042821799715    -0.001883591402     5.103920588633    14.003074004430
         C            0.913491799715    -0.007493591402     4.084510588633    12.000000000000
         H            1.961351799715    -0.006253591402     4.358810588633     1.007825032230
         C            0.540111799715    -0.014563591402     2.742680588633    12.000000000000
         H            1.287571799715    -0.018733591402     1.961580588633     1.007825032230
         C           -0.815938200285    -0.015983591402     2.430260588633    12.000000000000
         H           -1.145668200285    -0.021433591402     1.399980588633     1.007825032230
         C           -1.734038200285    -0.010263591402     3.475430588633    12.000000000000
         H           -2.798488200285    -0.011113591402     3.286700588633     1.007825032230
         C           -1.258438200285    -0.003343591402     4.784390588633    12.000000000000
         H           -1.950618200285     0.001236408598     5.617590588633     1.007825032230

  Charge       = 0
  Multiplicity = 1
  Basis Set: AUG-CC-PVTZ
    Blend: AUG-CC-PVTZ
  Basis Set: (AUG-CC-PVTZ AUX)
    Blend: AUG-CC-PVTZ-JKFIT

    Orbital Energies [Eh]
    ---------------------

    Doubly Occupied:

       1A    -15.567600     2A    -11.275701     3A    -11.275566
       4A    -11.260817     5A    -11.242822     6A    -11.242622
       7A     -1.257037     8A     -1.090273     9A     -1.033894
      10A     -0.859599    11A     -0.856344    12A     -0.722226
      13A     -0.660983    14A     -0.654702    15A     -0.598609
      16A     -0.577496    17A     -0.541491    18A     -0.519979
      19A     -0.420332    20A     -0.384345    21A     -0.348152

  @DF-RHF Final Energy:  -246.77861567382436

   => Energetics <=

    Nuclear Repulsion Energy =            206.1988048887025968
    One-Electron Energy =                -741.1736497645649706
    Two-Electron Energy =                 288.1962292020380119
    Total Energy =                       -246.7786156738243335

  Dipole Moment: [D]
     X:    -0.7167      Y:    -0.0117      Z:    -2.2237     Total:     2.3364

    SAPT Results
  --------------------------------------------------------------------------------------------------------
    Electrostatics                 -0.29476045 [mEh]      -0.18496498 [kcal/mol]      -0.77389347 [kJ/mol]
      Elst10,r                     -0.35032488 [mEh]      -0.21983218 [kcal/mol]      -0.91977784 [kJ/mol]
      Elst12,r                      0.05556442 [mEh]       0.03486720 [kcal/mol]       0.14588437 [kJ/mol]

    Exchange                        0.00073995 [mEh]       0.00046433 [kcal/mol]       0.00194275 [kJ/mol]
      Exch10                        0.00061490 [mEh]       0.00038586 [kcal/mol]       0.00161443 [kJ/mol]
      Exch10(S^2)                   0.00061490 [mEh]       0.00038586 [kcal/mol]       0.00161443 [kJ/mol]
      Exch11(S^2)                  -0.00003035 [mEh]      -0.00001904 [kcal/mol]      -0.00007968 [kJ/mol]
      Exch12(S^2)                   0.00015540 [mEh]       0.00009751 [kcal/mol]       0.00040800 [kJ/mol]

    Induction                      -0.01788035 [mEh]      -0.01122009 [kcal/mol]      -0.04694485 [kJ/mol]
      Ind20,r                      -0.01828505 [mEh]      -0.01147404 [kcal/mol]      -0.04800739 [kJ/mol]
      Ind22                         0.00130309 [mEh]       0.00081770 [kcal/mol]       0.00342127 [kJ/mol]
      Exch-Ind20,r                  0.00005162 [mEh]       0.00003239 [kcal/mol]       0.00013552 [kJ/mol]
      Exch-Ind22                   -0.00000368 [mEh]      -0.00000231 [kcal/mol]      -0.00000966 [kJ/mol]
      delta HF,r (2)               -0.00094633 [mEh]      -0.00059383 [kcal/mol]      -0.00248460 [kJ/mol]

    Dispersion                     -0.28875527 [mEh]      -0.18119667 [kcal/mol]      -0.75812685 [kJ/mol]
      Disp20                       -0.32493565 [mEh]      -0.20390020 [kcal/mol]      -0.85311844 [kJ/mol]
      Disp21                        0.11111833 [mEh]       0.06972781 [kcal/mol]       0.29174115 [kJ/mol]
      Disp22 (SDQ)                  0.00529916 [mEh]       0.00332527 [kcal/mol]       0.01391294 [kJ/mol]
      Disp22 (T)                   -0.07900628 [mEh]      -0.04957719 [kcal/mol]      -0.20743095 [kJ/mol]
      Est. Disp22 (T)              -0.08043042 [mEh]      -0.05047085 [kcal/mol]      -0.21117005 [kJ/mol]
      Exch-Disp20                   0.00019332 [mEh]       0.00012131 [kcal/mol]       0.00050755 [kJ/mol]

  Total HF                         -0.36888974 [mEh]      -0.23148181 [kcal/mol]      -0.96851987 [kJ/mol]
  Total SAPT0                      -0.69363207 [mEh]      -0.43526070 [kcal/mol]      -1.82113076 [kJ/mol]
  Total SAPT2                      -0.63664318 [mEh]      -0.39949963 [kcal/mol]      -1.67150645 [kJ/mol]
  Total SAPT2+                     -0.60065612 [mEh]      -0.37691740 [kcal/mol]      -1.57702241 [kJ/mol]

  Special recipe for scaled SAPT0 (see Manual):
    Electrostatics sSAPT0          -0.35032488 [mEh]      -0.21983218 [kcal/mol]      -0.91977784 [kJ/mol]
    Exchange sSAPT0                 0.00061490 [mEh]       0.00038586 [kcal/mol]       0.00161443 [kJ/mol]
    Induction sSAPT0               -0.01917976 [mEh]      -0.01203548 [kcal/mol]      -0.05035646 [kJ/mol]
    Dispersion sSAPT0              -0.32474233 [mEh]      -0.20377889 [kcal/mol]      -0.85261088 [kJ/mol]
  Total sSAPT0                     -0.69363207 [mEh]      -0.43526070 [kcal/mol]      -1.82113076 [kJ/mol]
  --------------------------------------------------------------------------------------------------------

*** Psi4 exiting successfully. Buy a developer a beer!
