                               Psi4 1.4a2.dev224

  ==> Input File <==

--------------------------------------------------------------------------
#Generated by lconvert.py for sapt job

memory 50 GB

molecule  {
0 1
  N       1.322760   -0.010380    1.019180
  C       0.651290   -1.148990    0.796800
  H       1.200420   -2.065530    0.973670
  C      -0.672680   -1.194710    0.366660
  H      -1.157190   -2.147320    0.206460
  C      -1.347200    0.003130    0.152140
  H      -2.375360    0.008400   -0.182290
  C      -0.664560    1.194090    0.379000
  H      -1.142630    2.151560    0.228720
  C       0.658900    1.134980    0.808860
  H       1.214100    2.045910    0.995440
--
0 1
  N       0.195000   -0.003760    7.644410
  C       1.065670   -0.009370    6.625000
  H       2.113520   -0.008120    6.899300
  C       0.692280   -0.016440    5.283170
  H       1.439740   -0.020600    4.502070
  C      -0.663770   -0.017850    4.970760
  H      -0.993500   -0.023310    3.940480
  C      -1.581870   -0.012140    6.015930
  H      -2.646320   -0.012990    5.827190
  C      -1.106270   -0.005220    7.324890
  H      -1.798450   -0.000640    8.158080
units angstrom
no_reorient
symmetry c1
}

set {
scf_type DF
basis aug-cc-pvtz
freeze_core True
guess SAD
}
energy('sapt2+')
--------------------------------------------------------------------------

  //              Dimer HF             //
    Molecular point group: c1
  Charge       = 0
  Multiplicity = 1
  Basis Set: AUG-CC-PVTZ
    Blend: AUG-CC-PVTZ
  Basis Set: (AUG-CC-PVTZ AUX)
    Blend: AUG-CC-PVTZ-JKFIT
  @DF-RHF Final Energy:  -493.55846560783800
    Total Energy =                       -493.5584656078380021
  //            Monomer A HF           //
    Molecular point group: c1
  Multiplicity = 1
  Basis Set: AUG-CC-PVTZ
    Blend: AUG-CC-PVTZ
  Basis Set: (AUG-CC-PVTZ AUX)
    Blend: AUG-CC-PVTZ-JKFIT
  @DF-RHF Final Energy:  -246.77872863058701
    Total Energy =                       -246.7787286305870111
  //            Monomer B HF           //
    Molecular point group: c1

    Geometry (in Angstrom), charge = 0, multiplicity = 1:

       Center              X                  Y                   Z               Mass
    ------------   -----------------  -----------------  -----------------  -----------------
      Gh(N)           1.440060154830    -0.003159477995    -2.433351752384    14.003074004430
      Gh(C)           0.768590154830    -1.141769477995    -2.655731752384    12.000000000000
      Gh(H)           1.317720154830    -2.058309477995    -2.478861752384     1.007825032230
      Gh(C)          -0.555379845170    -1.187489477995    -3.085871752384    12.000000000000
      Gh(H)          -1.039889845170    -2.140099477995    -3.246071752384     1.007825032230
      Gh(C)          -1.229899845170     0.010350522005    -3.300391752384    12.000000000000
      Gh(H)          -2.258059845170     0.015620522005    -3.634821752384     1.007825032230
      Gh(C)          -0.547259845170     1.201310522005    -3.073531752384    12.000000000000
      Gh(H)          -1.025329845170     2.158780522005    -3.223811752384     1.007825032230
      Gh(C)           0.776200154830     1.142200522005    -2.643671752384    12.000000000000
      Gh(H)           1.331400154830     2.053130522005    -2.457091752384     1.007825032230
         N            0.312300154830     0.003460522005     4.191878247616    14.003074004430
         C            1.182970154830    -0.002149477995     3.172468247616    12.000000000000
         H            2.230820154830    -0.000899477995     3.446768247616     1.007825032230
         C            0.809580154830    -0.009219477995     1.830638247616    12.000000000000
         H            1.557040154830    -0.013379477995     1.049538247616     1.007825032230
         C           -0.546469845170    -0.010629477995     1.518228247616    12.000000000000
         H           -0.876199845170    -0.016089477995     0.487948247616     1.007825032230
         C           -1.464569845170    -0.004919477995     2.563398247616    12.000000000000
         H           -2.529019845170    -0.005769477995     2.374658247616     1.007825032230
         C           -0.988969845170     0.002000522005     3.872358247616    12.000000000000
         H           -1.681149845170     0.006580522005     4.705548247616     1.007825032230

  Charge       = 0
  Multiplicity = 1
  Basis Set: AUG-CC-PVTZ
    Blend: AUG-CC-PVTZ
  Basis Set: (AUG-CC-PVTZ AUX)
    Blend: AUG-CC-PVTZ-JKFIT

    Orbital Energies [Eh]
    ---------------------

    Doubly Occupied:

       1A    -15.567594     2A    -11.275698     3A    -11.275563
       4A    -11.260815     5A    -11.242821     6A    -11.242620
       7A     -1.257032     8A     -1.090269     9A     -1.033891
      10A     -0.859595    11A     -0.856340    12A     -0.722222
      13A     -0.660978    14A     -0.654700    15A     -0.598606
      16A     -0.577490    17A     -0.541490    18A     -0.519977
      19A     -0.420328    20A     -0.384344    21A     -0.348151

  @DF-RHF Final Energy:  -246.77864346769508

   => Energetics <=

    Nuclear Repulsion Energy =            206.1986877356464731
    One-Electron Energy =                -741.1736100237028495
    Two-Electron Energy =                 288.1962788203613286
    Total Energy =                       -246.7786434676950762

  Dipole Moment: [D]
     X:    -0.7167      Y:    -0.0117      Z:    -2.2236     Total:     2.3362

    SAPT Results
  --------------------------------------------------------------------------------------------------------
    Electrostatics                 -1.13664149 [mEh]      -0.71325330 [kcal/mol]      -2.98425182 [kJ/mol]
      Elst10,r                     -1.30667651 [mEh]      -0.81995189 [kcal/mol]      -3.43067870 [kJ/mol]
      Elst12,r                      0.17003502 [mEh]       0.10669859 [kcal/mol]       0.44642688 [kJ/mol]

    Exchange                        0.44357794 [mEh]       0.27834936 [kcal/mol]       1.16461371 [kJ/mol]
      Exch10                        0.39557311 [mEh]       0.24822587 [kcal/mol]       1.03857706 [kJ/mol]
      Exch10(S^2)                   0.39554639 [mEh]       0.24820911 [kcal/mol]       1.03850691 [kJ/mol]
      Exch11(S^2)                   0.00082929 [mEh]       0.00052039 [kcal/mol]       0.00217730 [kJ/mol]
      Exch12(S^2)                   0.04717553 [mEh]       0.02960309 [kcal/mol]       0.12385935 [kJ/mol]

    Induction                      -0.18325190 [mEh]      -0.11499230 [kcal/mol]      -0.48112779 [kJ/mol]
      Ind20,r                      -0.19542792 [mEh]      -0.12263287 [kcal/mol]      -0.51309593 [kJ/mol]
      Ind22                        -0.00118274 [mEh]      -0.00074218 [kcal/mol]      -0.00310527 [kJ/mol]
      Exch-Ind20,r                  0.05568356 [mEh]       0.03494196 [kcal/mol]       0.14619716 [kJ/mol]
      Exch-Ind22                    0.00033700 [mEh]       0.00021147 [kcal/mol]       0.00088479 [kJ/mol]
      delta HF,r (2)               -0.04266179 [mEh]      -0.02677068 [kcal/mol]      -0.11200853 [kJ/mol]

    Dispersion                     -2.33870699 [mEh]      -1.46756079 [kcal/mol]      -6.14027436 [kJ/mol]
      Disp20                       -2.57795487 [mEh]      -1.61769111 [kcal/mol]      -6.76841959 [kJ/mol]
      Disp21                        0.68553152 [mEh]       0.43017752 [kcal/mol]       1.79986276 [kJ/mol]
      Disp22 (SDQ)                  0.08365080 [mEh]       0.05249167 [kcal/mol]       0.21962515 [kJ/mol]
      Disp22 (T)                   -0.56952992 [mEh]      -0.35738542 [kcal/mol]      -1.49530060 [kJ/mol]
      Est. Disp22 (T)              -0.60163706 [mEh]      -0.37753295 [kcal/mol]      -1.57959787 [kJ/mol]
      Exch-Disp20                   0.07170262 [mEh]       0.04499407 [kcal/mol]       0.18825519 [kJ/mol]

  Total HF                         -1.09350956 [mEh]      -0.68618761 [kcal/mol]      -2.87100894 [kJ/mol]
  Total SAPT0                      -3.59976181 [mEh]      -2.25888464 [kcal/mol]      -9.45117334 [kJ/mol]
  Total SAPT2                      -3.38256771 [mEh]      -2.12259328 [kcal/mol]      -8.88093029 [kJ/mol]
  Total SAPT2+                     -3.21502244 [mEh]      -2.01745704 [kcal/mol]      -8.44104025 [kJ/mol]

  Special recipe for scaled SAPT0 (see Manual):
    Electrostatics sSAPT0          -1.30667651 [mEh]      -0.81995189 [kcal/mol]      -3.43067870 [kJ/mol]
    Exchange sSAPT0                 0.39557311 [mEh]       0.24822587 [kcal/mol]       1.03857706 [kJ/mol]
    Induction sSAPT0               -0.18239487 [mEh]      -0.11445451 [kcal/mol]      -0.47887768 [kJ/mol]
    Dispersion sSAPT0              -2.50623772 [mEh]      -1.57268792 [kcal/mol]      -6.58012624 [kJ/mol]
  Total sSAPT0                     -3.59973599 [mEh]      -2.25886844 [kcal/mol]      -9.45110555 [kJ/mol]
  --------------------------------------------------------------------------------------------------------

*** Psi4 exiting successfully. Buy a developer a beer!
