                               Psi4 1.4a2.dev224

  ==> Input File <==

--------------------------------------------------------------------------
#Generated by lconvert.py for sapt job

memory 50 GB

molecule  {
0 1
  N       1.322760   -0.010380    1.019180
  C       0.651290   -1.148990    0.796800
  H       1.200420   -2.065530    0.973670
  C      -0.672680   -1.194710    0.366660
  H      -1.157190   -2.147320    0.206460
  C      -1.347200    0.003130    0.152140
  H      -2.375360    0.008400   -0.182290
  C      -0.664560    1.194090    0.379000
  H      -1.142630    2.151560    0.228720
  C       0.658900    1.134980    0.808860
  H       1.214100    2.045910    0.995440
--
0 1
  N      -0.074470   -0.009110    8.556450
  C       0.796190   -0.014720    7.537040
  H       1.844050   -0.013470    7.811340
  C       0.422810   -0.021790    6.195210
  H       1.170270   -0.025950    5.414110
  C      -0.933240   -0.023200    5.882800
  H      -1.262970   -0.028650    4.852520
  C      -1.851340   -0.017490    6.927970
  H      -2.915790   -0.018330    6.739230
  C      -1.375740   -0.010570    8.236920
  H      -2.067920   -0.005980    9.070120
units angstrom
no_reorient
symmetry c1
}

set {
scf_type DF
basis aug-cc-pvtz
freeze_core True
guess SAD
}
energy('sapt2+')
--------------------------------------------------------------------------

  //              Dimer HF             //
    Molecular point group: c1
  Charge       = 0
  Multiplicity = 1
  Basis Set: AUG-CC-PVTZ
    Blend: AUG-CC-PVTZ
  Basis Set: (AUG-CC-PVTZ AUX)
    Blend: AUG-CC-PVTZ-JKFIT
  @DF-RHF Final Energy:  -493.55796112981153
    Total Energy =                       -493.5579611298114742
  //            Monomer A HF           //
    Molecular point group: c1
  Multiplicity = 1
  Basis Set: AUG-CC-PVTZ
    Blend: AUG-CC-PVTZ
  Basis Set: (AUG-CC-PVTZ AUX)
    Blend: AUG-CC-PVTZ-JKFIT
  @DF-RHF Final Energy:  -246.77867727141356
    Total Energy =                       -246.7786772714135850
  //            Monomer B HF           //
    Molecular point group: c1

    Geometry (in Angstrom), charge = 0, multiplicity = 1:

       Center              X                  Y                   Z               Mass
    ------------   -----------------  -----------------  -----------------  -----------------
      Gh(N)           1.574795913918    -0.000484669252    -2.889370993296    14.003074004430
      Gh(C)           0.903325913918    -1.139094669252    -3.111750993296    12.000000000000
      Gh(H)           1.452455913918    -2.055634669252    -2.934880993296     1.007825032230
      Gh(C)          -0.420644086082    -1.184814669252    -3.541890993296    12.000000000000
      Gh(H)          -0.905154086082    -2.137424669252    -3.702090993296     1.007825032230
      Gh(C)          -1.095164086082     0.013025330748    -3.756410993296    12.000000000000
      Gh(H)          -2.123324086082     0.018295330748    -4.090840993296     1.007825032230
      Gh(C)          -0.412524086082     1.203985330748    -3.529550993296    12.000000000000
      Gh(H)          -0.890594086082     2.161455330748    -3.679830993296     1.007825032230
      Gh(C)           0.910935913918     1.144875330748    -3.099690993296    12.000000000000
      Gh(H)           1.466135913918     2.055805330748    -2.913110993296     1.007825032230
         N            0.177565913918     0.000785330748     4.647899006704    14.003074004430
         C            1.048225913918    -0.004824669252     3.628489006704    12.000000000000
         H            2.096085913918    -0.003574669252     3.902789006704     1.007825032230
         C            0.674845913918    -0.011894669252     2.286659006704    12.000000000000
         H            1.422305913918    -0.016054669252     1.505559006704     1.007825032230
         C           -0.681204086082    -0.013304669252     1.974249006704    12.000000000000
         H           -1.010934086082    -0.018754669252     0.943969006704     1.007825032230
         C           -1.599304086082    -0.007594669252     3.019419006704    12.000000000000
         H           -2.663754086082    -0.008434669252     2.830679006704     1.007825032230
         C           -1.123704086082    -0.000674669252     4.328369006704    12.000000000000
         H           -1.815884086082     0.003915330748     5.161569006704     1.007825032230

  Charge       = 0
  Multiplicity = 1
  Basis Set: AUG-CC-PVTZ
    Blend: AUG-CC-PVTZ
  Basis Set: (AUG-CC-PVTZ AUX)
    Blend: AUG-CC-PVTZ-JKFIT

    Orbital Energies [Eh]
    ---------------------

    Doubly Occupied:

       1A    -15.567599     2A    -11.275699     3A    -11.275564
       4A    -11.260816     5A    -11.242821     6A    -11.242621
       7A     -1.257036     8A     -1.090272     9A     -1.033895
      10A     -0.859599    11A     -0.856342    12A     -0.722225
      13A     -0.660982    14A     -0.654701    15A     -0.598608
      16A     -0.577493    17A     -0.541492    18A     -0.519978
      19A     -0.420332    20A     -0.384345    21A     -0.348152

  @DF-RHF Final Energy:  -246.77862501681733

   => Energetics <=

    Nuclear Repulsion Energy =            206.1989723142160358
    One-Electron Energy =                -741.1740419422231980
    Two-Electron Energy =                 288.1964446111898610
    Total Energy =                       -246.7786250168173297

  Dipole Moment: [D]
     X:    -0.7167      Y:    -0.0117      Z:    -2.2236     Total:     2.3363

    SAPT Results
  --------------------------------------------------------------------------------------------------------
    Electrostatics                 -0.52571445 [mEh]      -0.32989080 [kcal/mol]      -1.38026310 [kJ/mol]
      Elst10,r                     -0.62490799 [mEh]      -0.39213569 [kcal/mol]      -1.64069571 [kJ/mol]
      Elst12,r                      0.09919354 [mEh]       0.06224489 [kcal/mol]       0.26043261 [kJ/mol]

    Exchange                        0.01882920 [mEh]       0.01181550 [kcal/mol]       0.04943605 [kJ/mol]
      Exch10                        0.01605742 [mEh]       0.01007618 [kcal/mol]       0.04215874 [kJ/mol]
      Exch10(S^2)                   0.01605749 [mEh]       0.01007623 [kcal/mol]       0.04215893 [kJ/mol]
      Exch11(S^2)                  -0.00039867 [mEh]      -0.00025017 [kcal/mol]      -0.00104671 [kJ/mol]
      Exch12(S^2)                   0.00317045 [mEh]       0.00198949 [kcal/mol]       0.00832402 [kJ/mol]

    Induction                      -0.04723613 [mEh]      -0.02964112 [kcal/mol]      -0.12401845 [kJ/mol]
      Ind20,r                      -0.04763668 [mEh]      -0.02989247 [kcal/mol]      -0.12507010 [kJ/mol]
      Ind22                         0.00285873 [mEh]       0.00179388 [kcal/mol]       0.00750559 [kJ/mol]
      Exch-Ind20,r                  0.00173064 [mEh]       0.00108599 [kcal/mol]       0.00454379 [kJ/mol]
      Exch-Ind22                   -0.00010386 [mEh]      -0.00006517 [kcal/mol]      -0.00027268 [kJ/mol]
      delta HF,r (2)               -0.00408496 [mEh]      -0.00256335 [kcal/mol]      -0.01072506 [kJ/mol]

    Dispersion                     -0.74424429 [mEh]      -0.46702034 [kcal/mol]      -1.95401312 [kJ/mol]
      Disp20                       -0.82443178 [mEh]      -0.51733876 [kcal/mol]      -2.16454535 [kJ/mol]
      Disp21                        0.25658629 [mEh]       0.16101033 [kcal/mol]       0.67366720 [kJ/mol]
      Disp22 (SDQ)                  0.01946627 [mEh]       0.01221527 [kcal/mol]       0.05110869 [kJ/mol]
      Disp22 (T)                   -0.19371190 [mEh]      -0.12155605 [kcal/mol]      -0.50859051 [kJ/mol]
      Est. Disp22 (T)              -0.19979945 [mEh]      -0.12537605 [kcal/mol]      -0.52457338 [kJ/mol]
      Exch-Disp20                   0.00393438 [mEh]       0.00246886 [kcal/mol]       0.01032972 [kJ/mol]

  Total HF                         -0.65884158 [mEh]      -0.41342933 [kcal/mol]      -1.72978833 [kJ/mol]
  Total SAPT0                      -1.47933898 [mEh]      -0.92829923 [kcal/mol]      -3.88400397 [kJ/mol]
  Total SAPT2                      -1.37461879 [mEh]      -0.86258631 [kcal/mol]      -3.60906114 [kJ/mol]
  Total SAPT2+                     -1.29836568 [mEh]      -0.81473676 [kcal/mol]      -3.40885862 [kJ/mol]

  Special recipe for scaled SAPT0 (see Manual):
    Electrostatics sSAPT0          -0.62490799 [mEh]      -0.39213569 [kcal/mol]      -1.64069571 [kJ/mol]
    Exchange sSAPT0                 0.01605742 [mEh]       0.01007618 [kcal/mol]       0.04215874 [kJ/mol]
    Induction sSAPT0               -0.04999103 [mEh]      -0.03136984 [kcal/mol]      -0.13125143 [kJ/mol]
    Dispersion sSAPT0              -0.82049746 [mEh]      -0.51486993 [kcal/mol]      -2.15421577 [kJ/mol]
  Total sSAPT0                     -1.47933906 [mEh]      -0.92829927 [kcal/mol]      -3.88400416 [kJ/mol]
  --------------------------------------------------------------------------------------------------------

*** Psi4 exiting successfully. Buy a developer a beer!
