                               Psi4 1.4a2.dev224

  ==> Input File <==

--------------------------------------------------------------------------
#Generated by lconvert.py for sapt job

memory 50 GB

molecule  {
0 1
  C       0.845080    1.057920    0.699460
  H       1.506410    1.903220    0.833380
  C       1.375510   -0.217460    0.511160
  H       2.447180   -0.361470    0.502850
  C       0.524070   -1.307040    0.333190
  H       0.935730   -2.296030    0.184920
  C      -0.857720   -1.121460    0.346380
  H      -1.518380   -1.966460    0.208360
  C      -1.388050    0.153630    0.537610
  H      -2.459720    0.297420    0.550030
  C      -0.536610    1.243420    0.712740
  H      -0.948920    2.232810    0.857370
--
0 1
  N       0.010350    0.146240    7.787030
  C       0.165040    1.084200    6.842150
  H       0.306810    2.096720    7.200050
  C       0.150830    0.816910    5.475650
  H       0.281070    1.617930    4.761770
  C      -0.033510   -0.494720    5.050360
  H      -0.050080   -0.737840    3.997020
  C      -0.195360   -1.479750    6.019220
  H      -0.341900   -2.514970    5.744450
  C      -0.166160   -1.112420    7.362310
  H      -0.289750   -1.859940    8.136410
units angstrom
no_reorient
symmetry c1
}

set {
scf_type DF
basis aug-cc-pvtz
freeze_core True
guess SAD
}
energy('sapt2+')
--------------------------------------------------------------------------

  //              Dimer HF             //
    Molecular point group: c1
  Charge       = 0
  Multiplicity = 1
  Basis Set: AUG-CC-PVTZ
    Blend: AUG-CC-PVTZ
  Basis Set: (AUG-CC-PVTZ AUX)
    Blend: AUG-CC-PVTZ-JKFIT
  @DF-RHF Final Energy:  -477.56100002867367
    Total Energy =                       -477.5610000286736749
  //            Monomer A HF           //
    Molecular point group: c1
  Multiplicity = 1
  Basis Set: AUG-CC-PVTZ
    Blend: AUG-CC-PVTZ
  Basis Set: (AUG-CC-PVTZ AUX)
    Blend: AUG-CC-PVTZ-JKFIT
  @DF-RHF Final Energy:  -230.78131418684575
    Total Energy =                       -230.7813141868457478
  //            Monomer B HF           //
    Molecular point group: c1

    Geometry (in Angstrom), charge = 0, multiplicity = 1:

       Center              X                  Y                   Z               Mass
    ------------   -----------------  -----------------  -----------------  -----------------
      Gh(C)           0.853929800083     1.160247063630    -2.795114721685    12.000000000000
      Gh(H)           1.515259800083     2.005547063630    -2.661194721685     1.007825032230
      Gh(C)           1.384359800083    -0.115132936370    -2.983414721685    12.000000000000
      Gh(H)           2.456029800083    -0.259142936370    -2.991724721685     1.007825032230
      Gh(C)           0.532919800083    -1.204712936370    -3.161384721685    12.000000000000
      Gh(H)           0.944579800083    -2.193702936370    -3.309654721685     1.007825032230
      Gh(C)          -0.848870199917    -1.019132936370    -3.148194721685    12.000000000000
      Gh(H)          -1.509530199917    -1.864132936370    -3.286214721685     1.007825032230
      Gh(C)          -1.379200199917     0.255957063630    -2.956964721685    12.000000000000
      Gh(H)          -2.450870199917     0.399747063630    -2.944544721685     1.007825032230
      Gh(C)          -0.527760199917     1.345747063630    -2.781834721685    12.000000000000
      Gh(H)          -0.940070199917     2.335137063630    -2.637204721685     1.007825032230
         N            0.019199800083     0.248567063630     4.292455278315    14.003074004430
         C            0.173889800083     1.186527063630     3.347575278315    12.000000000000
         H            0.315659800083     2.199047063630     3.705475278315     1.007825032230
         C            0.159679800083     0.919237063630     1.981075278315    12.000000000000
         H            0.289919800083     1.720257063630     1.267195278315     1.007825032230
         C           -0.024660199917    -0.392392936370     1.555785278315    12.000000000000
         H           -0.041230199917    -0.635512936370     0.502445278315     1.007825032230
         C           -0.186510199917    -1.377422936370     2.524645278315    12.000000000000
         H           -0.333050199917    -2.412642936370     2.249875278315     1.007825032230
         C           -0.157310199917    -1.010092936370     3.867735278315    12.000000000000
         H           -0.280900199917    -1.757612936370     4.641835278315     1.007825032230

  Charge       = 0
  Multiplicity = 1
  Basis Set: AUG-CC-PVTZ
    Blend: AUG-CC-PVTZ
  Basis Set: (AUG-CC-PVTZ AUX)
    Blend: AUG-CC-PVTZ-JKFIT

    Orbital Energies [Eh]
    ---------------------

    Doubly Occupied:

       1A    -15.567595     2A    -11.275514     3A    -11.275483
       4A    -11.260781     5A    -11.242699     6A    -11.242572
       7A     -1.257111     8A     -1.090469     9A     -1.033795
      10A     -0.859846    11A     -0.856239    12A     -0.722404
      13A     -0.660977    14A     -0.654487    15A     -0.598282
      16A     -0.578407    17A     -0.541537    18A     -0.519757
      19A     -0.420347    20A     -0.384444    21A     -0.348065

  @DF-RHF Final Energy:  -246.77866194901048

   => Energetics <=

    Nuclear Repulsion Energy =            206.2246099485912794
    One-Electron Energy =                -741.2249252832561979
    Two-Electron Energy =                 288.2216533856544629
    Total Energy =                       -246.7786619490104840

  Dipole Moment: [D]
     X:    -0.0365      Y:    -0.5325      Z:    -2.2750     Total:     2.3368

    SAPT Results
  --------------------------------------------------------------------------------------------------------
    Electrostatics                 -0.91897787 [mEh]      -0.57666732 [kcal/mol]      -2.41277607 [kJ/mol]
      Elst10,r                     -1.12416784 [mEh]      -0.70542597 [kcal/mol]      -2.95150226 [kJ/mol]
      Elst12,r                      0.20518997 [mEh]       0.12875865 [kcal/mol]       0.53872620 [kJ/mol]

    Exchange                        0.28507008 [mEh]       0.17888418 [kcal/mol]       0.74845139 [kJ/mol]
      Exch10                        0.25805105 [mEh]       0.16192948 [kcal/mol]       0.67751294 [kJ/mol]
      Exch10(S^2)                   0.25803595 [mEh]       0.16192000 [kcal/mol]       0.67747329 [kJ/mol]
      Exch11(S^2)                   0.00146091 [mEh]       0.00091674 [kcal/mol]       0.00383562 [kJ/mol]
      Exch12(S^2)                   0.02555812 [mEh]       0.01603796 [kcal/mol]       0.06710283 [kJ/mol]

    Induction                      -0.15496425 [mEh]      -0.09724153 [kcal/mol]      -0.40685857 [kJ/mol]
      Ind20,r                      -0.16126406 [mEh]      -0.10119473 [kcal/mol]      -0.42339874 [kJ/mol]
      Ind22                         0.00369998 [mEh]       0.00232177 [kcal/mol]       0.00971429 [kJ/mol]
      Exch-Ind20,r                  0.03871222 [mEh]       0.02429229 [kcal/mol]       0.10163892 [kJ/mol]
      Exch-Ind22                   -0.00088820 [mEh]      -0.00055735 [kcal/mol]      -0.00233196 [kJ/mol]
      delta HF,r (2)               -0.03522418 [mEh]      -0.02210351 [kcal/mol]      -0.09248108 [kJ/mol]

    Dispersion                     -1.95337496 [mEh]      -1.22576129 [kcal/mol]      -5.12858524 [kJ/mol]
      Disp20                       -2.18540980 [mEh]      -1.37136536 [kcal/mol]      -5.73779265 [kJ/mol]
      Disp21                        0.58158435 [mEh]       0.36494969 [kcal/mol]       1.52694949 [kJ/mol]
      Disp22 (SDQ)                  0.10271319 [mEh]       0.06445350 [kcal/mol]       0.26967345 [kJ/mol]
      Disp22 (T)                   -0.48067189 [mEh]      -0.30162616 [kcal/mol]      -1.26200387 [kJ/mol]
      Est. Disp22 (T)              -0.50576756 [mEh]      -0.31737393 [kcal/mol]      -1.32789254 [kJ/mol]
      Exch-Disp20                   0.05350487 [mEh]       0.03357481 [kcal/mol]       0.14047701 [kJ/mol]

  Total HF                         -1.02389282 [mEh]      -0.64250244 [kcal/mol]      -2.68823022 [kJ/mol]
  Total SAPT0                      -3.15579775 [mEh]      -1.98029299 [kcal/mol]      -8.28554586 [kJ/mol]
  Total SAPT2                      -2.92077697 [mEh]      -1.83281522 [kcal/mol]      -7.66849889 [kJ/mol]
  Total SAPT2+                     -2.74224699 [mEh]      -1.72078597 [kcal/mol]      -7.19976849 [kJ/mol]

  Special recipe for scaled SAPT0 (see Manual):
    Electrostatics sSAPT0          -1.12416784 [mEh]      -0.70542597 [kcal/mol]      -2.95150226 [kJ/mol]
    Exchange sSAPT0                 0.25805105 [mEh]       0.16192948 [kcal/mol]       0.67751294 [kJ/mol]
    Induction sSAPT0               -0.15776923 [mEh]      -0.09900169 [kcal/mol]      -0.41422305 [kJ/mol]
    Dispersion sSAPT0              -2.13189554 [mEh]      -1.33778465 [kcal/mol]      -5.59729098 [kJ/mol]
  Total sSAPT0                     -3.15578156 [mEh]      -1.98028283 [kcal/mol]      -8.28550335 [kJ/mol]
  --------------------------------------------------------------------------------------------------------

*** Psi4 exiting successfully. Buy a developer a beer!
