                               Psi4 1.4a2.dev224

  ==> Input File <==

--------------------------------------------------------------------------
#Generated by lconvert.py for sapt job

memory 80 GB

molecule  {
0 1
  C       0.845080    1.057920    0.699460
  H       1.506410    1.903220    0.833380
  C       1.375510   -0.217460    0.511160
  H       2.447180   -0.361470    0.502850
  C       0.524070   -1.307040    0.333190
  H       0.935730   -2.296030    0.184920
  C      -0.857720   -1.121460    0.346380
  H      -1.518380   -1.966460    0.208360
  C      -1.388050    0.153630    0.537610
  H      -2.459720    0.297420    0.550030
  C      -0.536610    1.243420    0.712740
  H      -0.948920    2.232810    0.857370
--
0 1
  N      -0.017440   -0.301940    9.992070
  C       0.137240    0.636020    9.047200
  H       0.279010    1.648550    9.405100
  C       0.123030    0.368730    7.680700
  H       0.253270    1.169760    6.966810
  C      -0.061310   -0.942900    7.255400
  H      -0.077870   -1.186020    6.202060
  C      -0.223160   -1.927930    8.224260
  H      -0.369700   -2.963140    7.949490
  C      -0.193950   -1.560600    9.567350
  H      -0.317550   -2.308110   10.341450
units angstrom
no_reorient
symmetry c1
}

set {
scf_type DF
basis aug-cc-pvtz
freeze_core True
guess SAD
}
energy('sapt2+')
--------------------------------------------------------------------------

  //              Dimer HF             //
    Molecular point group: c1
  Charge       = 0
  Multiplicity = 1
  Basis Set: AUG-CC-PVTZ
    Blend: AUG-CC-PVTZ
  Basis Set: (AUG-CC-PVTZ AUX)
    Blend: AUG-CC-PVTZ-JKFIT
  @DF-RHF Final Energy:  -477.56018303697005
    Total Energy =                       -477.5601830369701020
  //            Monomer A HF           //
    Molecular point group: c1
  Multiplicity = 1
  Basis Set: AUG-CC-PVTZ
    Blend: AUG-CC-PVTZ
  Basis Set: (AUG-CC-PVTZ AUX)
    Blend: AUG-CC-PVTZ-JKFIT
  @DF-RHF Final Energy:  -230.78123459446368
    Total Energy =                       -230.7812345944636832
  //            Monomer B HF           //
    Molecular point group: c1

    Geometry (in Angstrom), charge = 0, multiplicity = 1:

       Center              X                  Y                   Z               Mass
    ------------   -----------------  -----------------  -----------------  -----------------
      Gh(C)           0.867916145014     1.385756544416    -3.904621403958    12.000000000000
      Gh(H)           1.529246145014     2.231056544416    -3.770701403958     1.007825032230
      Gh(C)           1.398346145014     0.110376544416    -4.092921403958    12.000000000000
      Gh(H)           2.470016145014    -0.033633455584    -4.101231403958     1.007825032230
      Gh(C)           0.546906145014    -0.979203455584    -4.270891403958    12.000000000000
      Gh(H)           0.958566145014    -1.968193455584    -4.419161403958     1.007825032230
      Gh(C)          -0.834883854986    -0.793623455584    -4.257701403958    12.000000000000
      Gh(H)          -1.495543854986    -1.638623455584    -4.395721403958     1.007825032230
      Gh(C)          -1.365213854986     0.481466544416    -4.066471403958    12.000000000000
      Gh(H)          -2.436883854986     0.625256544416    -4.054051403958     1.007825032230
      Gh(C)          -0.513773854986     1.571256544416    -3.891341403958    12.000000000000
      Gh(H)          -0.926083854986     2.560646544416    -3.746711403958     1.007825032230
         N            0.005396145014     0.025896544416     5.387988596042    14.003074004430
         C            0.160076145014     0.963856544416     4.443118596042    12.000000000000
         H            0.301846145014     1.976386544416     4.801018596042     1.007825032230
         C            0.145866145014     0.696566544416     3.076618596042    12.000000000000
         H            0.276106145014     1.497596544416     2.362728596042     1.007825032230
         C           -0.038473854986    -0.615063455584     2.651318596042    12.000000000000
         H           -0.055033854986    -0.858183455584     1.597978596042     1.007825032230
         C           -0.200323854986    -1.600093455584     3.620178596042    12.000000000000
         H           -0.346863854986    -2.635303455584     3.345408596042     1.007825032230
         C           -0.171113854986    -1.232763455584     4.963268596042    12.000000000000
         H           -0.294713854986    -1.980273455584     5.737368596042     1.007825032230

  Charge       = 0
  Multiplicity = 1
  Basis Set: AUG-CC-PVTZ
    Blend: AUG-CC-PVTZ
  Basis Set: (AUG-CC-PVTZ AUX)
    Blend: AUG-CC-PVTZ-JKFIT

    Orbital Energies [Eh]
    ---------------------

    Doubly Occupied:

       1A    -15.567601     2A    -11.275518     3A    -11.275487
       4A    -11.260786     5A    -11.242703     6A    -11.242578
       7A     -1.257117     8A     -1.090474     9A     -1.033801
      10A     -0.859852    11A     -0.856245    12A     -0.722411
      13A     -0.660984    14A     -0.654492    15A     -0.598288
      16A     -0.578416    17A     -0.541538    18A     -0.519763
      19A     -0.420351    20A     -0.384446    21A     -0.348067

  @DF-RHF Final Energy:  -246.77863100015114

   => Energetics <=

    Nuclear Repulsion Energy =            206.2246923708726740
    One-Electron Energy =                -741.2248106793861098
    Two-Electron Energy =                 288.2214873083623843
    Total Energy =                       -246.7786310001511083

  Dipole Moment: [D]
     X:    -0.0365      Y:    -0.5325      Z:    -2.2753     Total:     2.3371

    SAPT Results
  --------------------------------------------------------------------------------------------------------
    Electrostatics                 -0.24898076 [mEh]      -0.15623779 [kcal/mol]      -0.65369889 [kJ/mol]
      Elst10,r                     -0.30568801 [mEh]      -0.19182212 [kcal/mol]      -0.80258377 [kJ/mol]
      Elst12,r                      0.05670725 [mEh]       0.03558434 [kcal/mol]       0.14888487 [kJ/mol]

    Exchange                        0.00015774 [mEh]       0.00009898 [kcal/mol]       0.00041415 [kJ/mol]
      Exch10                        0.00013658 [mEh]       0.00008570 [kcal/mol]       0.00035858 [kJ/mol]
      Exch10(S^2)                   0.00013658 [mEh]       0.00008570 [kcal/mol]       0.00035858 [kJ/mol]
      Exch11(S^2)                  -0.00000804 [mEh]      -0.00000505 [kcal/mol]      -0.00002112 [kJ/mol]
      Exch12(S^2)                   0.00002921 [mEh]       0.00001833 [kcal/mol]       0.00007669 [kJ/mol]

    Induction                      -0.01097868 [mEh]      -0.00688923 [kcal/mol]      -0.02882453 [kJ/mol]
      Ind20,r                      -0.01150956 [mEh]      -0.00722235 [kcal/mol]      -0.03021833 [kJ/mol]
      Ind22                         0.00091348 [mEh]       0.00057322 [kcal/mol]       0.00239835 [kJ/mol]
      Exch-Ind20,r                  0.00001573 [mEh]       0.00000987 [kcal/mol]       0.00004131 [kJ/mol]
      Exch-Ind22                   -0.00000125 [mEh]      -0.00000078 [kcal/mol]      -0.00000328 [kJ/mol]
      delta HF,r (2)               -0.00039710 [mEh]      -0.00024918 [kcal/mol]      -0.00104258 [kJ/mol]

    Dispersion                     -0.19112708 [mEh]      -0.11993406 [kcal/mol]      -0.50180409 [kJ/mol]
      Disp20                       -0.21890161 [mEh]      -0.13736283 [kcal/mol]      -0.57472609 [kJ/mol]
      Disp21                        0.07585497 [mEh]       0.04759971 [kcal/mol]       0.19915719 [kJ/mol]
      Disp22 (SDQ)                  0.00582560 [mEh]       0.00365562 [kcal/mol]       0.01529512 [kJ/mol]
      Disp22 (T)                   -0.05308118 [mEh]      -0.03330895 [kcal/mol]      -0.13936463 [kJ/mol]
      Est. Disp22 (T)              -0.05396194 [mEh]      -0.03386163 [kcal/mol]      -0.14167705 [kJ/mol]
      Exch-Disp20                   0.00005589 [mEh]       0.00003507 [kcal/mol]       0.00014675 [kJ/mol]

  Total HF                         -0.31744236 [mEh]      -0.19919809 [kcal/mol]      -0.83344479 [kJ/mol]
  Total SAPT0                      -0.53628807 [mEh]      -0.33652584 [kcal/mol]      -1.40802414 [kJ/mol]
  Total SAPT2                      -0.47864742 [mEh]      -0.30035579 [kcal/mol]      -1.25668862 [kJ/mol]
  Total SAPT2+                     -0.45092879 [mEh]      -0.28296209 [kcal/mol]      -1.18391337 [kJ/mol]

  Special recipe for scaled SAPT0 (see Manual):
    Electrostatics sSAPT0          -0.30568801 [mEh]      -0.19182212 [kcal/mol]      -0.80258377 [kJ/mol]
    Exchange sSAPT0                 0.00013658 [mEh]       0.00008570 [kcal/mol]       0.00035858 [kJ/mol]
    Induction sSAPT0               -0.01189092 [mEh]      -0.00746166 [kcal/mol]      -0.03121960 [kJ/mol]
    Dispersion sSAPT0              -0.21884572 [mEh]      -0.13732776 [kcal/mol]      -0.57457935 [kJ/mol]
  Total sSAPT0                     -0.53628807 [mEh]      -0.33652584 [kcal/mol]      -1.40802414 [kJ/mol]
  --------------------------------------------------------------------------------------------------------

*** Psi4 exiting successfully. Buy a developer a beer!
