                               Psi4 1.4a2.dev224

  ==> Input File <==

--------------------------------------------------------------------------
#Generated by lconvert.py for sapt job

memory 50 GB

molecule  {
0 1
  C       0.845080    1.057920    0.699460
  H       1.506410    1.903220    0.833380
  C       1.375510   -0.217460    0.511160
  H       2.447180   -0.361470    0.502850
  C       0.524070   -1.307040    0.333190
  H       0.935730   -2.296030    0.184920
  C      -0.857720   -1.121460    0.346380
  H      -1.518380   -1.966460    0.208360
  C      -1.388050    0.153630    0.537610
  H      -2.459720    0.297420    0.550030
  C      -0.536610    1.243420    0.712740
  H      -0.948920    2.232810    0.857370
--
0 1
  N      -0.003550   -0.077850    8.889550
  C       0.151140    0.860110    7.944670
  H       0.292910    1.872640    8.302580
  C       0.136930    0.592820    6.578170
  H       0.267170    1.393850    5.864290
  C      -0.047410   -0.718810    6.152880
  H      -0.063980   -0.961930    5.099540
  C      -0.209260   -1.703840    7.121740
  H      -0.355800   -2.739050    6.846970
  C      -0.180060   -1.336510    8.464830
  H      -0.303650   -2.084020    9.238930
units angstrom
no_reorient
symmetry c1
}

set {
scf_type DF
basis aug-cc-pvtz
freeze_core True
guess SAD
}
energy('sapt2+')
--------------------------------------------------------------------------

  //              Dimer HF             //
    Molecular point group: c1
  Charge       = 0
  Multiplicity = 1
  Basis Set: AUG-CC-PVTZ
    Blend: AUG-CC-PVTZ
  Basis Set: (AUG-CC-PVTZ AUX)
    Blend: AUG-CC-PVTZ-JKFIT
  @DF-RHF Final Energy:  -477.56047539478323
    Total Energy =                       -477.5604753947832251
  //            Monomer A HF           //
    Molecular point group: c1
  Multiplicity = 1
  Basis Set: AUG-CC-PVTZ
    Blend: AUG-CC-PVTZ
  Basis Set: (AUG-CC-PVTZ AUX)
    Blend: AUG-CC-PVTZ-JKFIT
  @DF-RHF Final Energy:  -230.78125579742863
    Total Energy =                       -230.7812557974286278
  //            Monomer B HF           //
    Molecular point group: c1

    Geometry (in Angstrom), charge = 0, multiplicity = 1:

       Center              X                  Y                   Z               Mass
    ------------   -----------------  -----------------  -----------------  -----------------
      Gh(C)           0.860923832280     1.273001675710    -3.349867331002    12.000000000000
      Gh(H)           1.522253832280     2.118301675710    -3.215947331002     1.007825032230
      Gh(C)           1.391353832280    -0.002378324290    -3.538167331002    12.000000000000
      Gh(H)           2.463023832280    -0.146388324290    -3.546477331002     1.007825032230
      Gh(C)           0.539913832280    -1.091958324290    -3.716137331002    12.000000000000
      Gh(H)           0.951573832280    -2.080948324290    -3.864407331002     1.007825032230
      Gh(C)          -0.841876167720    -0.906378324290    -3.702947331002    12.000000000000
      Gh(H)          -1.502536167720    -1.751378324290    -3.840967331002     1.007825032230
      Gh(C)          -1.372206167720     0.368711675710    -3.511717331002    12.000000000000
      Gh(H)          -2.443876167720     0.512501675710    -3.499297331002     1.007825032230
      Gh(C)          -0.520766167720     1.458501675710    -3.336587331002    12.000000000000
      Gh(H)          -0.933076167720     2.447891675710    -3.191957331002     1.007825032230
         N            0.012293832280     0.137231675710     4.840222668998    14.003074004430
         C            0.166983832280     1.075191675710     3.895342668998    12.000000000000
         H            0.308753832280     2.087721675710     4.253252668998     1.007825032230
         C            0.152773832280     0.807901675710     2.528842668998    12.000000000000
         H            0.283013832280     1.608931675710     1.814962668998     1.007825032230
         C           -0.031566167720    -0.503728324290     2.103552668998    12.000000000000
         H           -0.048136167720    -0.746848324290     1.050212668998     1.007825032230
         C           -0.193416167720    -1.488758324290     3.072412668998    12.000000000000
         H           -0.339956167720    -2.523968324290     2.797642668998     1.007825032230
         C           -0.164216167720    -1.121428324290     4.415502668998    12.000000000000
         H           -0.287806167720    -1.868938324290     5.189602668998     1.007825032230

  Charge       = 0
  Multiplicity = 1
  Basis Set: AUG-CC-PVTZ
    Blend: AUG-CC-PVTZ
  Basis Set: (AUG-CC-PVTZ AUX)
    Blend: AUG-CC-PVTZ-JKFIT

    Orbital Energies [Eh]
    ---------------------

    Doubly Occupied:

       1A    -15.567600     2A    -11.275518     3A    -11.275486
       4A    -11.260784     5A    -11.242702     6A    -11.242576
       7A     -1.257114     8A     -1.090473     9A     -1.033799
      10A     -0.859850    11A     -0.856243    12A     -0.722409
      13A     -0.660981    14A     -0.654492    15A     -0.598287
      16A     -0.578413    17A     -0.541537    18A     -0.519761
      19A     -0.420350    20A     -0.384446    21A     -0.348066

  @DF-RHF Final Energy:  -246.77863946914295

   => Energetics <=

    Nuclear Repulsion Energy =            206.2245935264732850
    One-Electron Energy =                -741.2246914990289497
    Two-Electron Energy =                 288.2214585034126912
    Total Energy =                       -246.7786394691429450

  Dipole Moment: [D]
     X:    -0.0365      Y:    -0.5325      Z:    -2.2751     Total:     2.3369

    SAPT Results
  --------------------------------------------------------------------------------------------------------
    Electrostatics                 -0.44234626 [mEh]      -0.27757647 [kcal/mol]      -1.16137994 [kJ/mol]
      Elst10,r                     -0.55025710 [mEh]      -0.34529155 [kcal/mol]      -1.44469983 [kJ/mol]
      Elst12,r                      0.10791085 [mEh]       0.06771508 [kcal/mol]       0.28331989 [kJ/mol]

    Exchange                        0.00707777 [mEh]       0.00444137 [kcal/mol]       0.01858267 [kJ/mol]
      Exch10                        0.00612354 [mEh]       0.00384258 [kcal/mol]       0.01607736 [kJ/mol]
      Exch10(S^2)                   0.00612356 [mEh]       0.00384260 [kcal/mol]       0.01607742 [kJ/mol]
      Exch11(S^2)                  -0.00017441 [mEh]      -0.00010944 [kcal/mol]      -0.00045791 [kJ/mol]
      Exch12(S^2)                   0.00112863 [mEh]       0.00070823 [kcal/mol]       0.00296322 [kJ/mol]

    Induction                      -0.03360405 [mEh]      -0.02108686 [kcal/mol]      -0.08822741 [kJ/mol]
      Ind20,r                      -0.03485466 [mEh]      -0.02187163 [kcal/mol]      -0.09151090 [kJ/mol]
      Ind22                         0.00244559 [mEh]       0.00153463 [kcal/mol]       0.00642090 [kJ/mol]
      Exch-Ind20,r                  0.00078367 [mEh]       0.00049176 [kcal/mol]       0.00205751 [kJ/mol]
      Exch-Ind22                   -0.00005499 [mEh]      -0.00003450 [kcal/mol]      -0.00014437 [kJ/mol]
      delta HF,r (2)               -0.00192366 [mEh]      -0.00120711 [kcal/mol]      -0.00505056 [kJ/mol]

    Dispersion                     -0.53957198 [mEh]      -0.33858653 [kcal/mol]      -1.41664604 [kJ/mol]
      Disp20                       -0.60834987 [mEh]      -0.38174531 [kcal/mol]      -1.59722238 [kJ/mol]
      Disp21                        0.19189751 [mEh]       0.12041750 [kcal/mol]       0.50382684 [kJ/mol]
      Disp22 (SDQ)                  0.02159721 [mEh]       0.01355245 [kcal/mol]       0.05670347 [kJ/mol]
      Disp22 (T)                   -0.14233343 [mEh]      -0.08931558 [kcal/mol]      -0.37369637 [kJ/mol]
      Est. Disp22 (T)              -0.14656694 [mEh]      -0.09197214 [kcal/mol]      -0.38481145 [kJ/mol]
      Exch-Disp20                   0.00185012 [mEh]       0.00116097 [kcal/mol]       0.00485748 [kJ/mol]

  Total HF                         -0.58012821 [mEh]      -0.36403595 [kcal/mol]      -1.52312641 [kJ/mol]
  Total SAPT0                      -1.18662797 [mEh]      -0.74462029 [kcal/mol]      -3.11549131 [kJ/mol]
  Total SAPT2                      -1.07537230 [mEh]      -0.67480630 [kcal/mol]      -2.82338958 [kJ/mol]
  Total SAPT2+                     -1.00844452 [mEh]      -0.63280849 [kcal/mol]      -2.64767072 [kJ/mol]

  Special recipe for scaled SAPT0 (see Manual):
    Electrostatics sSAPT0          -0.55025710 [mEh]      -0.34529155 [kcal/mol]      -1.44469983 [kJ/mol]
    Exchange sSAPT0                 0.00612354 [mEh]       0.00384258 [kcal/mol]       0.01607736 [kJ/mol]
    Induction sSAPT0               -0.03599465 [mEh]      -0.02258699 [kcal/mol]      -0.09450395 [kJ/mol]
    Dispersion sSAPT0              -0.60649976 [mEh]      -0.38058434 [kcal/mol]      -1.59236490 [kJ/mol]
  Total sSAPT0                     -1.18662797 [mEh]      -0.74462029 [kcal/mol]      -3.11549131 [kJ/mol]
  --------------------------------------------------------------------------------------------------------

*** Psi4 exiting successfully. Buy a developer a beer!
