                               Psi4 1.4a2.dev224

  ==> Input File <==

--------------------------------------------------------------------------
#Generated by lconvert.py for sapt job

memory 50 GB

molecule  {
0 1
  C       0.964080    0.875090    0.378010
  H       1.659830    1.699930    0.446040
  C       1.431060   -0.413130    0.118990
  H       2.489520   -0.587210   -0.017010
  C       0.534130   -1.477640    0.042420
  H       0.896960   -2.477390   -0.152010
  C      -0.830330   -1.253600    0.220860
  H      -1.525760   -2.079620    0.164120
  C      -1.297590    0.034410    0.480240
  H      -2.354400    0.208020    0.628560
  C      -0.400440    1.099780    0.561600
  H      -0.760450    2.093770    0.784760
--
0 1
  C      -0.247820    1.140340    8.900470
  O      -0.716010    2.189790    8.521210
  O       0.155390    0.162780    8.061180
  H      -0.013310    0.488690    7.159770
  C      -0.037870    0.743350   10.331870
  H      -0.347830    1.552690   10.981860
  H      -0.613950   -0.153270   10.548820
  H       1.010630    0.507220   10.496890
units angstrom
no_reorient
symmetry c1
}

set {
scf_type DF
basis aug-cc-pvtz
freeze_core True
guess SAD
}
energy('sapt2+')
--------------------------------------------------------------------------

  //              Dimer HF             //
    Molecular point group: c1
  Charge       = 0
  Multiplicity = 1
  Basis Set: AUG-CC-PVTZ
    Blend: AUG-CC-PVTZ
  Basis Set: (AUG-CC-PVTZ AUX)
    Blend: AUG-CC-PVTZ-JKFIT
  @DF-RHF Final Energy:  -458.68653293027290
    Total Energy =                       -458.6865329302728469
  //            Monomer A HF           //
    Molecular point group: c1
  Multiplicity = 1
  Basis Set: AUG-CC-PVTZ
    Blend: AUG-CC-PVTZ
  Basis Set: (AUG-CC-PVTZ AUX)
    Blend: AUG-CC-PVTZ-JKFIT
  @DF-RHF Final Energy:  -230.78115186179963
    Total Energy =                       -230.7811518617996285
  //            Monomer B HF           //
    Molecular point group: c1

    Geometry (in Angstrom), charge = 0, multiplicity = 1:

       Center              X                  Y                   Z               Mass
    ------------   -----------------  -----------------  -----------------  -----------------
      Gh(C)           1.015791708742     0.528340846439    -3.670792499621    12.000000000000
      Gh(H)           1.711541708742     1.353180846439    -3.602762499621     1.007825032230
      Gh(C)           1.482771708742    -0.759879153561    -3.929812499621    12.000000000000
      Gh(H)           2.541231708742    -0.933959153561    -4.065812499621     1.007825032230
      Gh(C)           0.585841708742    -1.824389153561    -4.006382499621    12.000000000000
      Gh(H)           0.948671708742    -2.824139153561    -4.200812499621     1.007825032230
      Gh(C)          -0.778618291258    -1.600349153561    -3.827942499621    12.000000000000
      Gh(H)          -1.474048291258    -2.426369153561    -3.884682499621     1.007825032230
      Gh(C)          -1.245878291258    -0.312339153561    -3.568562499621    12.000000000000
      Gh(H)          -2.302688291258    -0.138729153561    -3.420242499621     1.007825032230
      Gh(C)          -0.348728291258     0.753030846439    -3.487202499621    12.000000000000
      Gh(H)          -0.708738291258     1.747020846439    -3.264042499621     1.007825032230
         C           -0.196108291258     0.793590846439     4.851667500379    12.000000000000
         O           -0.664298291258     1.843040846439     4.472407500379    15.994914619570
         O            0.207101708742    -0.183969153561     4.012377500379    15.994914619570
         H            0.038401708742     0.141940846439     3.110967500379     1.007825032230
         C            0.013841708742     0.396600846439     6.283067500379    12.000000000000
         H           -0.296118291258     1.205940846439     6.933057500379     1.007825032230
         H           -0.562238291258    -0.500019153561     6.500017500379     1.007825032230
         H            1.062341708742     0.160470846439     6.448087500379     1.007825032230

  Charge       = 0
  Multiplicity = 1
  Basis Set: AUG-CC-PVTZ
    Blend: AUG-CC-PVTZ
  Basis Set: (AUG-CC-PVTZ AUX)
    Blend: AUG-CC-PVTZ-JKFIT

    Orbital Energies [Eh]
    ---------------------

    Doubly Occupied:

       1A    -20.617853     2A    -20.552019     3A    -11.390920
       4A    -11.245423     5A     -1.467730     6A     -1.363067
       7A     -1.029778     8A     -0.825904     9A     -0.707974
      10A     -0.682280    11A     -0.653245    12A     -0.585898
      13A     -0.574934    14A     -0.563681    15A     -0.485188
      16A     -0.456678

  @DF-RHF Final Energy:  -227.90516750940324

   => Energetics <=

    Nuclear Repulsion Energy =            121.2268108588042281
    One-Electron Energy =                -551.8588039563362599
    Two-Electron Energy =                 202.7268255881287757
    Total Energy =                       -227.9051675094032419

  Dipole Moment: [D]
     X:     0.7799      Y:    -1.7644      Z:     0.6552     Total:     2.0374

    SAPT Results
  --------------------------------------------------------------------------------------------------------
    Electrostatics                 -0.17808262 [mEh]      -0.11174853 [kcal/mol]      -0.46755586 [kJ/mol]
      Elst10,r                     -0.21038620 [mEh]      -0.13201933 [kcal/mol]      -0.55236889 [kJ/mol]
      Elst12,r                      0.03230358 [mEh]       0.02027080 [kcal/mol]       0.08481303 [kJ/mol]

    Exchange                        0.00000613 [mEh]       0.00000385 [kcal/mol]       0.00001610 [kJ/mol]
      Exch10                        0.00000686 [mEh]       0.00000431 [kcal/mol]       0.00001801 [kJ/mol]
      Exch10(S^2)                   0.00000686 [mEh]       0.00000431 [kcal/mol]       0.00001801 [kJ/mol]
      Exch11(S^2)                  -0.00000001 [mEh]      -0.00000001 [kcal/mol]      -0.00000004 [kJ/mol]
      Exch12(S^2)                  -0.00000072 [mEh]      -0.00000045 [kcal/mol]      -0.00000188 [kJ/mol]

    Induction                      -0.00303657 [mEh]      -0.00190548 [kcal/mol]      -0.00797252 [kJ/mol]
      Ind20,r                      -0.00325855 [mEh]      -0.00204477 [kcal/mol]      -0.00855532 [kJ/mol]
      Ind22                         0.00014329 [mEh]       0.00008991 [kcal/mol]       0.00037620 [kJ/mol]
      Exch-Ind20,r                  0.00000288 [mEh]       0.00000181 [kcal/mol]       0.00000757 [kJ/mol]
      Exch-Ind22                   -0.00000013 [mEh]      -0.00000008 [kcal/mol]      -0.00000033 [kJ/mol]
      delta HF,r (2)                0.00007593 [mEh]       0.00004765 [kcal/mol]       0.00019937 [kJ/mol]

    Dispersion                     -0.05423100 [mEh]      -0.03403047 [kcal/mol]      -0.14238347 [kJ/mol]
      Disp20                       -0.05671070 [mEh]      -0.03558650 [kcal/mol]      -0.14889393 [kJ/mol]
      Disp21                        0.01489147 [mEh]       0.00934454 [kcal/mol]       0.03909754 [kJ/mol]
      Disp22 (SDQ)                  0.00099687 [mEh]       0.00062555 [kcal/mol]       0.00261729 [kJ/mol]
      Disp22 (T)                   -0.01323348 [mEh]      -0.00830413 [kcal/mol]      -0.03474449 [kJ/mol]
      Est. Disp22 (T)              -0.01341080 [mEh]      -0.00841540 [kcal/mol]      -0.03521004 [kJ/mol]
      Exch-Disp20                   0.00000216 [mEh]       0.00000136 [kcal/mol]       0.00000567 [kJ/mol]

  Total HF                         -0.21355907 [mEh]      -0.13401034 [kcal/mol]      -0.56069926 [kJ/mol]
  Total SAPT0                      -0.27026761 [mEh]      -0.16959549 [kcal/mol]      -0.70958752 [kJ/mol]
  Total SAPT2                      -0.23782161 [mEh]      -0.14923531 [kcal/mol]      -0.62440054 [kJ/mol]
  Total SAPT2+                     -0.23534406 [mEh]      -0.14768063 [kcal/mol]      -0.61789575 [kJ/mol]

  Special recipe for scaled SAPT0 (see Manual):
    Electrostatics sSAPT0          -0.21038620 [mEh]      -0.13201933 [kcal/mol]      -0.55236889 [kJ/mol]
    Exchange sSAPT0                 0.00000686 [mEh]       0.00000431 [kcal/mol]       0.00001801 [kJ/mol]
    Induction sSAPT0               -0.00317973 [mEh]      -0.00199531 [kcal/mol]      -0.00834839 [kJ/mol]
    Dispersion sSAPT0              -0.05670854 [mEh]      -0.03558515 [kcal/mol]      -0.14888826 [kJ/mol]
  Total sSAPT0                     -0.27026761 [mEh]      -0.16959549 [kcal/mol]      -0.70958752 [kJ/mol]
  --------------------------------------------------------------------------------------------------------

*** Psi4 exiting successfully. Buy a developer a beer!
