                               Psi4 1.4a2.dev224

  ==> Input File <==

--------------------------------------------------------------------------
#Generated by lconvert.py for sapt job

memory 50 GB

molecule  {
0 1
  C       0.964080    0.875090    0.378010
  H       1.659830    1.699930    0.446040
  C       1.431060   -0.413130    0.118990
  H       2.489520   -0.587210   -0.017010
  C       0.534130   -1.477640    0.042420
  H       0.896960   -2.477390   -0.152010
  C      -0.830330   -1.253600    0.220860
  H      -1.525760   -2.079620    0.164120
  C      -1.297590    0.034410    0.480240
  H      -2.354400    0.208020    0.628560
  C      -0.400440    1.099780    0.561600
  H      -0.760450    2.093770    0.784760
--
0 1
  C      -0.136200    0.654360    5.706940
  O      -0.604390    1.703800    5.327680
  O       0.267010   -0.323210    4.867660
  H       0.098300    0.002710    3.966250
  C       0.073750    0.257370    7.138350
  H      -0.236220    1.066710    7.788340
  H      -0.502330   -0.639260    7.355300
  H       1.122250    0.021240    7.303370
units angstrom
no_reorient
symmetry c1
}

set {
scf_type DF
basis aug-cc-pvtz
freeze_core True
guess SAD
}
energy('sapt2+')
--------------------------------------------------------------------------

  //              Dimer HF             //
    Molecular point group: c1
  Charge       = 0
  Multiplicity = 1
  Basis Set: AUG-CC-PVTZ
    Blend: AUG-CC-PVTZ
  Basis Set: (AUG-CC-PVTZ AUX)
    Blend: AUG-CC-PVTZ-JKFIT
  @DF-RHF Final Energy:  -458.68830660323033
    Total Energy =                       -458.6883066032303304
  //            Monomer A HF           //
    Molecular point group: c1
  Multiplicity = 1
  Basis Set: AUG-CC-PVTZ
    Blend: AUG-CC-PVTZ
  Basis Set: (AUG-CC-PVTZ AUX)
    Blend: AUG-CC-PVTZ-JKFIT
  @DF-RHF Final Energy:  -230.78121440735083
    Total Energy =                       -230.7812144073508307
  //            Monomer B HF           //
    Molecular point group: c1

    Geometry (in Angstrom), charge = 0, multiplicity = 1:

       Center              X                  Y                   Z               Mass
    ------------   -----------------  -----------------  -----------------  -----------------
      Gh(C)           0.967268267807     0.739609073820    -2.282499437115    12.000000000000
      Gh(H)           1.663018267807     1.564449073820    -2.214469437115     1.007825032230
      Gh(C)           1.434248267807    -0.548610926180    -2.541519437115    12.000000000000
      Gh(H)           2.492708267807    -0.722690926180    -2.677519437115     1.007825032230
      Gh(C)           0.537318267807    -1.613120926180    -2.618089437115    12.000000000000
      Gh(H)           0.900148267807    -2.612870926180    -2.812519437115     1.007825032230
      Gh(C)          -0.827141732193    -1.389080926180    -2.439649437115    12.000000000000
      Gh(H)          -1.522571732193    -2.215100926180    -2.496389437115     1.007825032230
      Gh(C)          -1.294401732193    -0.101070926180    -2.180269437115    12.000000000000
      Gh(H)          -2.351211732193     0.072539073820    -2.031949437115     1.007825032230
      Gh(C)          -0.397251732193     0.964299073820    -2.098909437115    12.000000000000
      Gh(H)          -0.757261732193     1.958289073820    -1.875749437115     1.007825032230
         C           -0.133011732193     0.518879073820     3.046430562885    12.000000000000
         O           -0.601201732193     1.568319073820     2.667170562885    15.994914619570
         O            0.270198267807    -0.458690926180     2.207150562885    15.994914619570
         H            0.101488267807    -0.132770926180     1.305740562885     1.007825032230
         C            0.076938267807     0.121889073820     4.477840562885    12.000000000000
         H           -0.233031732193     0.931229073820     5.127830562885     1.007825032230
         H           -0.499141732193    -0.774740926180     4.694790562885     1.007825032230
         H            1.125438267807    -0.114240926180     4.642860562885     1.007825032230

  Charge       = 0
  Multiplicity = 1
  Basis Set: AUG-CC-PVTZ
    Blend: AUG-CC-PVTZ
  Basis Set: (AUG-CC-PVTZ AUX)
    Blend: AUG-CC-PVTZ-JKFIT

    Orbital Energies [Eh]
    ---------------------

    Doubly Occupied:

       1A    -20.617846     2A    -20.552015     3A    -11.390911
       4A    -11.245424     5A     -1.467722     6A     -1.363063
       7A     -1.029771     8A     -0.825896     9A     -0.707969
      10A     -0.682276    11A     -0.653241    12A     -0.585894
      13A     -0.574929    14A     -0.563676    15A     -0.485186
      16A     -0.456677

  @DF-RHF Final Energy:  -227.90521566074537

   => Energetics <=

    Nuclear Repulsion Energy =            121.2267965859036138
    One-Electron Energy =                -551.8590204650487294
    Two-Electron Energy =                 202.7270082183997317
    Total Energy =                       -227.9052156607453696

  Dipole Moment: [D]
     X:     0.7799      Y:    -1.7643      Z:     0.6552     Total:     2.0372

    SAPT Results
  --------------------------------------------------------------------------------------------------------
    Electrostatics                 -1.53226634 [mEh]      -0.96151164 [kcal/mol]      -4.02296471 [kJ/mol]
      Elst10,r                     -1.81113235 [mEh]      -1.13650271 [kcal/mol]      -4.75512733 [kJ/mol]
      Elst12,r                      0.27886601 [mEh]       0.17499107 [kcal/mol]       0.73216262 [kJ/mol]

    Exchange                        0.17594545 [mEh]       0.11040744 [kcal/mol]       0.46194472 [kJ/mol]
      Exch10                        0.15158773 [mEh]       0.09512273 [kcal/mol]       0.39799352 [kJ/mol]
      Exch10(S^2)                   0.15156208 [mEh]       0.09510664 [kcal/mol]       0.39792618 [kJ/mol]
      Exch11(S^2)                   0.00255491 [mEh]       0.00160323 [kcal/mol]       0.00670791 [kJ/mol]
      Exch12(S^2)                   0.02180281 [mEh]       0.01368147 [kcal/mol]       0.05724328 [kJ/mol]

    Induction                      -0.21259046 [mEh]      -0.13340252 [kcal/mol]      -0.55815616 [kJ/mol]
      Ind20,r                      -0.22702695 [mEh]      -0.14246156 [kcal/mol]      -0.59605917 [kJ/mol]
      Ind22                         0.00541908 [mEh]       0.00340052 [kcal/mol]       0.01422778 [kJ/mol]
      Exch-Ind20,r                  0.04269084 [mEh]       0.02678891 [kcal/mol]       0.11208478 [kJ/mol]
      Exch-Ind22                   -0.00101902 [mEh]      -0.00063944 [kcal/mol]      -0.00267544 [kJ/mol]
      delta HF,r (2)               -0.03265440 [mEh]      -0.02049095 [kcal/mol]      -0.08573412 [kJ/mol]

    Dispersion                     -1.21438667 [mEh]      -0.76203914 [kcal/mol]      -3.18837177 [kJ/mol]
      Disp20                       -1.24302535 [mEh]      -0.78001018 [kcal/mol]      -3.26356260 [kJ/mol]
      Disp21                        0.26610723 [mEh]       0.16698481 [kcal/mol]       0.69866445 [kJ/mol]
      Disp22 (SDQ)                  0.02611628 [mEh]       0.01638821 [kcal/mol]       0.06856827 [kJ/mol]
      Disp22 (T)                   -0.27402404 [mEh]      -0.17195268 [kcal/mol]      -0.71945001 [kJ/mol]
      Est. Disp22 (T)              -0.28863683 [mEh]      -0.18112234 [kcal/mol]      -0.75781588 [kJ/mol]
      Exch-Disp20                   0.02505199 [mEh]       0.01572036 [kcal/mol]       0.06577399 [kJ/mol]

  Total HF                         -1.87653513 [mEh]      -1.17754357 [kcal/mol]      -4.92684232 [kJ/mol]
  Total SAPT0                      -3.09450849 [mEh]      -1.94183339 [kcal/mol]      -8.12463092 [kJ/mol]
  Total SAPT2                      -2.78688470 [mEh]      -1.74879655 [kcal/mol]      -7.31696477 [kJ/mol]
  Total SAPT2+                     -2.78329801 [mEh]      -1.74654587 [kcal/mol]      -7.30754793 [kJ/mol]

  Special recipe for scaled SAPT0 (see Manual):
    Electrostatics sSAPT0          -1.81113235 [mEh]      -1.13650271 [kcal/mol]      -4.75512733 [kJ/mol]
    Exchange sSAPT0                 0.15158773 [mEh]       0.09512273 [kcal/mol]       0.39799352 [kJ/mol]
    Induction sSAPT0               -0.21696883 [mEh]      -0.13615000 [kcal/mol]      -0.56965159 [kJ/mol]
    Dispersion sSAPT0              -1.21796063 [mEh]      -0.76428184 [kcal/mol]      -3.19775521 [kJ/mol]
  Total sSAPT0                     -3.09447409 [mEh]      -1.94181181 [kcal/mol]      -8.12454060 [kJ/mol]
  --------------------------------------------------------------------------------------------------------

*** Psi4 exiting successfully. Buy a developer a beer!
