                               Psi4 1.4a2.dev224

  ==> Input File <==

--------------------------------------------------------------------------
#Generated by lconvert.py for sapt job

memory 50 GB

molecule  {
0 1
  C       0.964080    0.875090    0.378010
  H       1.659830    1.699930    0.446040
  C       1.431060   -0.413130    0.118990
  H       2.489520   -0.587210   -0.017010
  C       0.534130   -1.477640    0.042420
  H       0.896960   -2.477390   -0.152010
  C      -0.830330   -1.253600    0.220860
  H      -1.525760   -2.079620    0.164120
  C      -1.297590    0.034410    0.480240
  H      -2.354400    0.208020    0.628560
  C      -0.400440    1.099780    0.561600
  H      -0.760450    2.093770    0.784760
--
0 1
  C      -0.192010    0.897350    7.303700
  O      -0.660200    1.946790    6.924440
  O       0.211200   -0.080220    6.464420
  H       0.042490    0.245700    5.563010
  C       0.017940    0.500360    8.735110
  H      -0.292020    1.309700    9.385100
  H      -0.558140   -0.396260    8.952060
  H       1.066440    0.264230    8.900130
units angstrom
no_reorient
symmetry c1
}

set {
scf_type DF
basis aug-cc-pvtz
freeze_core True
guess SAD
}
energy('sapt2+')
--------------------------------------------------------------------------

  //              Dimer HF             //
    Molecular point group: c1
  Charge       = 0
  Multiplicity = 1
  Basis Set: AUG-CC-PVTZ
    Blend: AUG-CC-PVTZ
  Basis Set: (AUG-CC-PVTZ AUX)
    Blend: AUG-CC-PVTZ-JKFIT
  @DF-RHF Final Energy:  -458.68692944741957
    Total Energy =                       -458.6869294474195158
  //            Monomer A HF           //
    Molecular point group: c1
  Multiplicity = 1
  Basis Set: AUG-CC-PVTZ
    Blend: AUG-CC-PVTZ
  Basis Set: (AUG-CC-PVTZ AUX)
    Blend: AUG-CC-PVTZ-JKFIT
  @DF-RHF Final Energy:  -230.78116746759920
    Total Energy =                       -230.7811674675991753
  //            Monomer B HF           //
    Molecular point group: c1

    Geometry (in Angstrom), charge = 0, multiplicity = 1:

       Center              X                  Y                   Z               Mass
    ------------   -----------------  -----------------  -----------------  -----------------
      Gh(C)           0.991529988274     0.633976082113    -2.976644954559    12.000000000000
      Gh(H)           1.687279988274     1.458816082113    -2.908614954559     1.007825032230
      Gh(C)           1.458509988274    -0.654243917887    -3.235664954559    12.000000000000
      Gh(H)           2.516969988274    -0.828323917887    -3.371664954559     1.007825032230
      Gh(C)           0.561579988274    -1.718753917887    -3.312234954559    12.000000000000
      Gh(H)           0.924409988274    -2.718503917887    -3.506664954559     1.007825032230
      Gh(C)          -0.802880011726    -1.494713917887    -3.133794954559    12.000000000000
      Gh(H)          -1.498310011726    -2.320733917887    -3.190534954559     1.007825032230
      Gh(C)          -1.270140011726    -0.206703917887    -2.874414954559    12.000000000000
      Gh(H)          -2.326950011726    -0.033093917887    -2.726094954559     1.007825032230
      Gh(C)          -0.372990011726     0.858666082113    -2.793054954559    12.000000000000
      Gh(H)          -0.733000011726     1.852656082113    -2.569894954559     1.007825032230
         C           -0.164560011726     0.656236082113     3.949045045441    12.000000000000
         O           -0.632750011726     1.705676082113     3.569785045441    15.994914619570
         O            0.238649988274    -0.321333917887     3.109765045441    15.994914619570
         H            0.069939988274     0.004586082113     2.208355045441     1.007825032230
         C            0.045389988274     0.259246082113     5.380455045441    12.000000000000
         H           -0.264570011726     1.068586082113     6.030445045441     1.007825032230
         H           -0.530690011726    -0.637373917887     5.597405045441     1.007825032230
         H            1.093889988274     0.023116082113     5.545475045441     1.007825032230

  Charge       = 0
  Multiplicity = 1
  Basis Set: AUG-CC-PVTZ
    Blend: AUG-CC-PVTZ
  Basis Set: (AUG-CC-PVTZ AUX)
    Blend: AUG-CC-PVTZ-JKFIT

    Orbital Energies [Eh]
    ---------------------

    Doubly Occupied:

       1A    -20.617856     2A    -20.552020     3A    -11.390919
       4A    -11.245423     5A     -1.467731     6A     -1.363071
       7A     -1.029774     8A     -0.825902     9A     -0.707975
      10A     -0.682281    11A     -0.653244    12A     -0.585899
      13A     -0.574932    14A     -0.563679    15A     -0.485190
      16A     -0.456678

  @DF-RHF Final Energy:  -227.90517808418218

   => Energetics <=

    Nuclear Repulsion Energy =            121.2268381886135700
    One-Electron Energy =                -551.8588696917961443
    Two-Electron Energy =                 202.7268534190004061
    Total Energy =                       -227.9051780841821824

  Dipole Moment: [D]
     X:     0.7799      Y:    -1.7644      Z:     0.6550     Total:     2.0372

    SAPT Results
  --------------------------------------------------------------------------------------------------------
    Electrostatics                 -0.47727307 [mEh]      -0.29949337 [kcal/mol]      -1.25308028 [kJ/mol]
      Elst10,r                     -0.56579360 [mEh]      -0.35504084 [kcal/mol]      -1.48549089 [kJ/mol]
      Elst12,r                      0.08852053 [mEh]       0.05554747 [kcal/mol]       0.23241061 [kJ/mol]

    Exchange                        0.00127189 [mEh]       0.00079813 [kcal/mol]       0.00333936 [kJ/mol]
      Exch10                        0.00110236 [mEh]       0.00069174 [kcal/mol]       0.00289424 [kJ/mol]
      Exch10(S^2)                   0.00110235 [mEh]       0.00069174 [kcal/mol]       0.00289423 [kJ/mol]
      Exch11(S^2)                   0.00000262 [mEh]       0.00000165 [kcal/mol]       0.00000689 [kJ/mol]
      Exch12(S^2)                   0.00016691 [mEh]       0.00010474 [kcal/mol]       0.00043823 [kJ/mol]

    Induction                      -0.01855189 [mEh]      -0.01164149 [kcal/mol]      -0.04870799 [kJ/mol]
      Ind20,r                      -0.01906853 [mEh]      -0.01196568 [kcal/mol]      -0.05006441 [kJ/mol]
      Ind22                         0.00066389 [mEh]       0.00041659 [kcal/mol]       0.00174303 [kJ/mol]
      Exch-Ind20,r                  0.00032695 [mEh]       0.00020517 [kcal/mol]       0.00085842 [kJ/mol]
      Exch-Ind22                   -0.00001138 [mEh]      -0.00000714 [kcal/mol]      -0.00002989 [kJ/mol]
      delta HF,r (2)               -0.00046282 [mEh]      -0.00029043 [kcal/mol]      -0.00121515 [kJ/mol]

    Dispersion                     -0.20636947 [mEh]      -0.12949880 [kcal/mol]      -0.54182297 [kJ/mol]
      Disp20                       -0.21340541 [mEh]      -0.13391392 [kcal/mol]      -0.56029583 [kJ/mol]
      Disp21                        0.05316902 [mEh]       0.03336407 [kcal/mol]       0.13959525 [kJ/mol]
      Disp22 (SDQ)                  0.00393211 [mEh]       0.00246743 [kcal/mol]       0.01032374 [kJ/mol]
      Disp22 (T)                   -0.04923494 [mEh]      -0.03089539 [kcal/mol]      -0.12926632 [kJ/mol]
      Est. Disp22 (T)              -0.05030163 [mEh]      -0.03156475 [kcal/mol]      -0.13206691 [kJ/mol]
      Exch-Disp20                   0.00023644 [mEh]       0.00014837 [kcal/mol]       0.00062076 [kJ/mol]

  Total HF                         -0.58389564 [mEh]      -0.36640004 [kcal/mol]      -1.53301779 [kJ/mol]
  Total SAPT0                      -0.79706461 [mEh]      -0.50016560 [kcal/mol]      -2.09269285 [kJ/mol]
  Total SAPT2                      -0.70772205 [mEh]      -0.44410229 [kcal/mol]      -1.85812397 [kJ/mol]
  Total SAPT2+                     -0.70092254 [mEh]      -0.43983554 [kcal/mol]      -1.84027188 [kJ/mol]

  Special recipe for scaled SAPT0 (see Manual):
    Electrostatics sSAPT0          -0.56579360 [mEh]      -0.35504084 [kcal/mol]      -1.48549089 [kJ/mol]
    Exchange sSAPT0                 0.00110236 [mEh]       0.00069174 [kcal/mol]       0.00289424 [kJ/mol]
    Induction sSAPT0               -0.01920440 [mEh]      -0.01205094 [kcal/mol]      -0.05042113 [kJ/mol]
    Dispersion sSAPT0              -0.21316897 [mEh]      -0.13376555 [kcal/mol]      -0.55967507 [kJ/mol]
  Total sSAPT0                     -0.79706461 [mEh]      -0.50016560 [kcal/mol]      -2.09269285 [kJ/mol]
  --------------------------------------------------------------------------------------------------------

*** Psi4 exiting successfully. Buy a developer a beer!
