                               Psi4 1.4a2.dev224

  ==> Input File <==

--------------------------------------------------------------------------
#Generated by lconvert.py for sapt job

memory 50 GB

molecule  {
0 1
  C       0.855560    0.358530    1.049750
  H       1.513830    0.902680    1.712770
  C       1.342900   -0.675380    0.251160
  H       2.392880   -0.933340    0.281960
  C       0.477810   -1.376700   -0.587820
  H       0.856080   -2.178910   -1.206820
  C      -0.874830   -1.042560   -0.630450
  H      -1.545410   -1.585700   -1.282420
  C      -1.362400   -0.007010    0.165850
  H      -2.411570    0.253470    0.130780
  C      -0.498440    0.693160    1.006990
  H      -0.866110    1.490340    1.638040
--
0 1
  C      -0.046790    0.089460    5.531020
  O       0.199700    1.132880    4.943780
  N      -0.350840   -1.065550    4.879850
  H      -0.325640   -1.072560    3.873210
  H      -0.506620   -1.921040    5.375550
  C      -0.023950   -0.005430    7.039440
  H       1.007760    0.078780    7.374510
  H      -0.445850   -0.932080    7.420460
  H      -0.573410    0.838410    7.446210
units angstrom
no_reorient
symmetry c1
}

set {
scf_type DF
basis aug-cc-pvtz
freeze_core True
guess SAD
}
energy('sapt2+')
--------------------------------------------------------------------------

  //              Dimer HF             //
    Molecular point group: c1
  Charge       = 0
  Multiplicity = 1
  Basis Set: AUG-CC-PVTZ
    Blend: AUG-CC-PVTZ
  Basis Set: (AUG-CC-PVTZ AUX)
    Blend: AUG-CC-PVTZ-JKFIT
  @DF-RHF Final Energy:  -438.84670598822942
    Total Energy =                       -438.8467059882294734
  //            Monomer A HF           //
    Molecular point group: c1
  Multiplicity = 1
  Basis Set: AUG-CC-PVTZ
    Blend: AUG-CC-PVTZ
  Basis Set: (AUG-CC-PVTZ AUX)
    Blend: AUG-CC-PVTZ-JKFIT
  @DF-RHF Final Energy:  -230.78119175908000
    Total Energy =                       -230.7811917590800022
  //            Monomer B HF           //
    Molecular point group: c1

    Geometry (in Angstrom), charge = 0, multiplicity = 1:

       Center              X                  Y                   Z               Mass
    ------------   -----------------  -----------------  -----------------  -----------------
      Gh(C)           0.886135897819     0.544484225190    -1.476730036694    12.000000000000
      Gh(H)           1.544405897819     1.088634225190    -0.813710036694     1.007825032230
      Gh(C)           1.373475897819    -0.489425774810    -2.275320036694    12.000000000000
      Gh(H)           2.423455897819    -0.747385774810    -2.244520036694     1.007825032230
      Gh(C)           0.508385897819    -1.190745774810    -3.114300036694    12.000000000000
      Gh(H)           0.886655897819    -1.992955774810    -3.733300036694     1.007825032230
      Gh(C)          -0.844254102181    -0.856605774810    -3.156930036694    12.000000000000
      Gh(H)          -1.514834102181    -1.399745774810    -3.808900036694     1.007825032230
      Gh(C)          -1.331824102181     0.178944225190    -2.360630036694    12.000000000000
      Gh(H)          -2.380994102181     0.439424225190    -2.395700036694     1.007825032230
      Gh(C)          -0.467864102181     0.879114225190    -1.519490036694    12.000000000000
      Gh(H)          -0.835534102181     1.676294225190    -0.888440036694     1.007825032230
         C           -0.016214102181     0.275414225190     3.004539963306    12.000000000000
         O            0.230275897819     1.318834225190     2.417299963306    15.994914619570
         N           -0.320264102181    -0.879595774810     2.353369963306    14.003074004430
         H           -0.295064102181    -0.886605774810     1.346729963306     1.007825032230
         H           -0.476044102181    -1.735085774810     2.849069963306     1.007825032230
         C            0.006625897819     0.180524225190     4.512959963306    12.000000000000
         H            1.038335897819     0.264734225190     4.848029963306     1.007825032230
         H           -0.415274102181    -0.746125774810     4.893979963306     1.007825032230
         H           -0.542834102181     1.024364225190     4.919729963306     1.007825032230

  Charge       = 0
  Multiplicity = 1
  Basis Set: AUG-CC-PVTZ
    Blend: AUG-CC-PVTZ
  Basis Set: (AUG-CC-PVTZ AUX)
    Blend: AUG-CC-PVTZ-JKFIT

    Orbital Energies [Eh]
    ---------------------

    Doubly Occupied:

       1A    -20.515706     2A    -15.588739     3A    -11.353933
       4A    -11.237836     5A     -1.376457     6A     -1.215319
       7A     -1.006460     8A     -0.802088     9A     -0.729775
      10A     -0.664889    11A     -0.616076    12A     -0.585544
      13A     -0.563480    14A     -0.525009    15A     -0.424302
      16A     -0.415697

  @DF-RHF Final Energy:  -208.06300436235438

   => Energetics <=

    Nuclear Repulsion Energy =            121.8374554077750958
    One-Electron Energy =                -524.5582986845549840
    Two-Electron Energy =                 194.6578389144254970
    Total Energy =                       -208.0630043623543770

  Dipole Moment: [D]
     X:    -0.7699      Y:    -3.9337      Z:     1.5012     Total:     4.2803

    SAPT Results
  --------------------------------------------------------------------------------------------------------
    Electrostatics                 -2.48155675 [mEh]      -1.55720037 [kcal/mol]      -6.51532635 [kJ/mol]
      Elst10,r                     -2.85902536 [mEh]      -1.79406550 [kcal/mol]      -7.50637006 [kJ/mol]
      Elst12,r                      0.37746861 [mEh]       0.23686513 [kcal/mol]       0.99104370 [kJ/mol]

    Exchange                        1.03627484 [mEh]       0.65027228 [kcal/mol]       2.72073922 [kJ/mol]
      Exch10                        0.89859571 [mEh]       0.56387732 [kcal/mol]       2.35926272 [kJ/mol]
      Exch10(S^2)                   0.89784620 [mEh]       0.56340700 [kcal/mol]       2.35729487 [kJ/mol]
      Exch11(S^2)                   0.00566083 [mEh]       0.00355222 [kcal/mol]       0.01486249 [kJ/mol]
      Exch12(S^2)                   0.13201830 [mEh]       0.08284274 [kcal/mol]       0.34661401 [kJ/mol]

    Induction                      -0.53246208 [mEh]      -0.33412500 [kcal/mol]      -1.39797901 [kJ/mol]
      Ind20,r                      -0.73441956 [mEh]      -0.46085523 [kcal/mol]      -1.92821829 [kJ/mol]
      Ind22                         0.02763397 [mEh]       0.01734058 [kcal/mol]       0.07255299 [kJ/mol]
      Exch-Ind20,r                  0.28327862 [mEh]       0.17776002 [kcal/mol]       0.74374793 [kJ/mol]
      Exch-Ind22                   -0.01065891 [mEh]      -0.00668857 [kcal/mol]      -0.02798497 [kJ/mol]
      delta HF,r (2)               -0.09829621 [mEh]      -0.06168180 [kcal/mol]      -0.25807666 [kJ/mol]

    Dispersion                     -2.38748616 [mEh]      -1.49817019 [kcal/mol]      -6.26834406 [kJ/mol]
      Disp20                       -2.46395294 [mEh]      -1.54615381 [kcal/mol]      -6.46910756 [kJ/mol]
      Disp21                        0.41785370 [mEh]       0.26220715 [kcal/mol]       1.09707473 [kJ/mol]
      Disp22 (SDQ)                  0.07199763 [mEh]       0.04517920 [kcal/mol]       0.18902975 [kJ/mol]
      Disp22 (T)                   -0.50961400 [mEh]      -0.31978761 [kcal/mol]      -1.33799137 [kJ/mol]
      Est. Disp22 (T)              -0.55176848 [mEh]      -0.34623995 [kcal/mol]      -1.44866794 [kJ/mol]
      Exch-Disp20                   0.13838393 [mEh]       0.08683723 [kcal/mol]       0.36332695 [kJ/mol]

  Total HF                         -2.50986680 [mEh]      -1.57496519 [kcal/mol]      -6.58965436 [kJ/mol]
  Total SAPT0                      -4.83543581 [mEh]      -3.03428178 [kcal/mol]     -12.69543496 [kJ/mol]
  Total SAPT2                      -4.30331301 [mEh]      -2.70036968 [kcal/mol]     -11.29834674 [kJ/mol]
  Total SAPT2+                     -4.36523016 [mEh]      -2.73922328 [kcal/mol]     -11.46091020 [kJ/mol]

  Special recipe for scaled SAPT0 (see Manual):
    Electrostatics sSAPT0          -2.85902536 [mEh]      -1.79406550 [kcal/mol]      -7.50637006 [kJ/mol]
    Exchange sSAPT0                 0.89859571 [mEh]       0.56387732 [kcal/mol]       2.35926272 [kJ/mol]
    Induction sSAPT0               -0.54872712 [mEh]      -0.34433147 [kcal/mol]      -1.44068285 [kJ/mol]
    Dispersion sSAPT0              -2.32522216 [mEh]      -1.45909893 [kcal/mol]      -6.10486994 [kJ/mol]
  Total sSAPT0                     -4.83437893 [mEh]      -3.03361858 [kcal/mol]     -12.69266013 [kJ/mol]
  --------------------------------------------------------------------------------------------------------

*** Psi4 exiting successfully. Buy a developer a beer!
