                               Psi4 1.4a2.dev224

  ==> Input File <==

--------------------------------------------------------------------------
#Generated by lconvert.py for sapt job

memory 50 GB

molecule  {
0 1
  C       0.855560    0.358530    1.049750
  H       1.513830    0.902680    1.712770
  C       1.342900   -0.675380    0.251160
  H       2.392880   -0.933340    0.281960
  C       0.477810   -1.376700   -0.587820
  H       0.856080   -2.178910   -1.206820
  C      -0.874830   -1.042560   -0.630450
  H      -1.545410   -1.585700   -1.282420
  C      -1.362400   -0.007010    0.165850
  H      -2.411570    0.253470    0.130780
  C      -0.498440    0.693160    1.006990
  H      -0.866110    1.490340    1.638040
--
0 1
  C      -0.299900   -0.712920    6.959080
  O      -0.053410    0.330510    6.371840
  N      -0.603940   -1.867920    6.307920
  H      -0.578740   -1.874940    5.301280
  H      -0.759720   -2.723420    6.803620
  C      -0.277050   -0.807810    8.467500
  H       0.754660   -0.723600    8.802570
  H      -0.698960   -1.734450    8.848530
  H      -0.826520    0.036040    8.874270
units angstrom
no_reorient
symmetry c1
}

set {
scf_type DF
basis aug-cc-pvtz
freeze_core True
guess SAD
}
energy('sapt2+')
--------------------------------------------------------------------------

  //              Dimer HF             //
    Molecular point group: c1
  Charge       = 0
  Multiplicity = 1
  Basis Set: AUG-CC-PVTZ
    Blend: AUG-CC-PVTZ
  Basis Set: (AUG-CC-PVTZ AUX)
    Blend: AUG-CC-PVTZ-JKFIT
  @DF-RHF Final Energy:  -438.84481434325909
    Total Energy =                       -438.8448143432590314
  //            Monomer A HF           //
    Molecular point group: c1
  Multiplicity = 1
  Basis Set: AUG-CC-PVTZ
    Blend: AUG-CC-PVTZ
  Basis Set: (AUG-CC-PVTZ AUX)
    Blend: AUG-CC-PVTZ-JKFIT
  @DF-RHF Final Energy:  -230.78113749620678
    Total Energy =                       -230.7811374962067816
  //            Monomer B HF           //
    Molecular point group: c1

    Geometry (in Angstrom), charge = 0, multiplicity = 1:

       Center              X                  Y                   Z               Mass
    ------------   -----------------  -----------------  -----------------  -----------------
      Gh(C)           0.995139039183     0.890037733364    -2.091744711126    12.000000000000
      Gh(H)           1.653409039183     1.434187733364    -1.428724711126     1.007825032230
      Gh(C)           1.482479039183    -0.143872266636    -2.890334711126    12.000000000000
      Gh(H)           2.532459039183    -0.401832266636    -2.859534711126     1.007825032230
      Gh(C)           0.617389039183    -0.845192266636    -3.729314711126    12.000000000000
      Gh(H)           0.995659039183    -1.647402266636    -4.348314711126     1.007825032230
      Gh(C)          -0.735250960817    -0.511052266636    -3.771944711126    12.000000000000
      Gh(H)          -1.405830960817    -1.054192266636    -4.423914711126     1.007825032230
      Gh(C)          -1.222820960817     0.524497733364    -2.975644711126    12.000000000000
      Gh(H)          -2.271990960817     0.784977733364    -3.010714711126     1.007825032230
      Gh(C)          -0.358860960817     1.224667733364    -2.134504711126    12.000000000000
      Gh(H)          -0.726530960817     2.021847733364    -1.503454711126     1.007825032230
         C           -0.160320960817    -0.181412266636     3.817585288874    12.000000000000
         O            0.086169039183     0.862017733364     3.230345288874    15.994914619570
         N           -0.464360960817    -1.336412266636     3.166425288874    14.003074004430
         H           -0.439160960817    -1.343432266636     2.159785288874     1.007825032230
         H           -0.620140960817    -2.191912266636     3.662125288874     1.007825032230
         C           -0.137470960817    -0.276302266636     5.326005288874    12.000000000000
         H            0.894239039183    -0.192092266636     5.661075288874     1.007825032230
         H           -0.559380960817    -1.202942266636     5.707035288874     1.007825032230
         H           -0.686940960817     0.567547733364     5.732775288874     1.007825032230

  Charge       = 0
  Multiplicity = 1
  Basis Set: AUG-CC-PVTZ
    Blend: AUG-CC-PVTZ
  Basis Set: (AUG-CC-PVTZ AUX)
    Blend: AUG-CC-PVTZ-JKFIT

    Orbital Energies [Eh]
    ---------------------

    Doubly Occupied:

       1A    -20.515711     2A    -15.588748     3A    -11.353934
       4A    -11.237836     5A     -1.376456     6A     -1.215326
       7A     -1.006460     8A     -0.802095     9A     -0.729780
      10A     -0.664889    11A     -0.616076    12A     -0.585545
      13A     -0.563477    14A     -0.525009    15A     -0.424302
      16A     -0.415699

  @DF-RHF Final Energy:  -208.06296054394784

   => Energetics <=

    Nuclear Repulsion Energy =            121.8374798543331110
    One-Electron Energy =                -524.5581959538465071
    Two-Electron Energy =                 194.6577555555655863
    Total Energy =                       -208.0629605439478382

  Dipole Moment: [D]
     X:    -0.7700      Y:    -3.9343      Z:     1.5011     Total:     4.2807

    SAPT Results
  --------------------------------------------------------------------------------------------------------
    Electrostatics                 -0.54176378 [mEh]      -0.33996191 [kcal/mol]      -1.42240062 [kJ/mol]
      Elst10,r                     -0.64650660 [mEh]      -0.40568902 [kcal/mol]      -1.69740284 [kJ/mol]
      Elst12,r                      0.10474282 [mEh]       0.06572711 [kcal/mol]       0.27500222 [kJ/mol]

    Exchange                        0.00969385 [mEh]       0.00608298 [kcal/mol]       0.02545120 [kJ/mol]
      Exch10                        0.00779513 [mEh]       0.00489152 [kcal/mol]       0.02046611 [kJ/mol]
      Exch10(S^2)                   0.00779503 [mEh]       0.00489145 [kcal/mol]       0.02046584 [kJ/mol]
      Exch11(S^2)                  -0.00029736 [mEh]      -0.00018659 [kcal/mol]      -0.00078071 [kJ/mol]
      Exch12(S^2)                   0.00219608 [mEh]       0.00137806 [kcal/mol]       0.00576580 [kJ/mol]

    Induction                      -0.06455337 [mEh]      -0.04050785 [kcal/mol]      -0.16948484 [kJ/mol]
      Ind20,r                      -0.07869893 [mEh]      -0.04938433 [kcal/mol]      -0.20662402 [kJ/mol]
      Ind22                         0.01335440 [mEh]       0.00838001 [kcal/mol]       0.03506197 [kJ/mol]
      Exch-Ind20,r                  0.00186299 [mEh]       0.00116904 [kcal/mol]       0.00489128 [kJ/mol]
      Exch-Ind22                   -0.00031613 [mEh]      -0.00019837 [kcal/mol]      -0.00083000 [kJ/mol]
      delta HF,r (2)               -0.00075569 [mEh]      -0.00047421 [kcal/mol]      -0.00198407 [kJ/mol]

    Dispersion                     -0.36437930 [mEh]      -0.22865146 [kcal/mol]      -0.95667772 [kJ/mol]
      Disp20                       -0.37167357 [mEh]      -0.23322869 [kcal/mol]      -0.97582882 [kJ/mol]
      Disp21                        0.08642512 [mEh]       0.05423258 [kcal/mol]       0.22690912 [kJ/mol]
      Disp22 (SDQ)                  0.00721133 [mEh]       0.00452518 [kcal/mol]       0.01893334 [kJ/mol]
      Disp22 (T)                   -0.08529514 [mEh]      -0.05352351 [kcal/mol]      -0.22394236 [kJ/mol]
      Est. Disp22 (T)              -0.08816894 [mEh]      -0.05532685 [kcal/mol]      -0.23148752 [kJ/mol]
      Exch-Disp20                   0.00182676 [mEh]       0.00114631 [kcal/mol]       0.00479616 [kJ/mol]

  Total HF                         -0.71630310 [mEh]      -0.44948698 [kcal/mol]      -1.88065354 [kJ/mol]
  Total SAPT0                      -1.08614991 [mEh]      -0.68156936 [kcal/mol]      -2.85168621 [kJ/mol]
  Total SAPT2                      -0.96647011 [mEh]      -0.60646915 [kcal/mol]      -2.53746693 [kJ/mol]
  Total SAPT2+                     -0.96100260 [mEh]      -0.60303824 [kcal/mol]      -2.52311198 [kJ/mol]

  Special recipe for scaled SAPT0 (see Manual):
    Electrostatics sSAPT0          -0.64650660 [mEh]      -0.40568902 [kcal/mol]      -1.69740284 [kJ/mol]
    Exchange sSAPT0                 0.00779513 [mEh]       0.00489152 [kcal/mol]       0.02046611 [kJ/mol]
    Induction sSAPT0               -0.07759164 [mEh]      -0.04868949 [kcal/mol]      -0.20371681 [kJ/mol]
    Dispersion sSAPT0              -0.36984681 [mEh]      -0.23208238 [kcal/mol]      -0.97103267 [kJ/mol]
  Total sSAPT0                     -1.08614991 [mEh]      -0.68156936 [kcal/mol]      -2.85168621 [kJ/mol]
  --------------------------------------------------------------------------------------------------------

*** Psi4 exiting successfully. Buy a developer a beer!
