                               Psi4 1.4a2.dev224

  ==> Input File <==

--------------------------------------------------------------------------
#Generated by lconvert.py for sapt job

memory 50 GB

molecule  {
0 1
  C       0.855560    0.358530    1.049750
  H       1.513830    0.902680    1.712770
  C       1.342900   -0.675380    0.251160
  H       2.392880   -0.933340    0.281960
  C       0.477810   -1.376700   -0.587820
  H       0.856080   -2.178910   -1.206820
  C      -0.874830   -1.042560   -0.630450
  H      -1.545410   -1.585700   -1.282420
  C      -1.362400   -0.007010    0.165850
  H      -2.411570    0.253470    0.130780
  C      -0.498440    0.693160    1.006990
  H      -0.866110    1.490340    1.638040
--
0 1
  C      -0.173350   -0.311730    6.245050
  O       0.073140    0.731700    5.657810
  N      -0.477390   -1.466740    5.593880
  H      -0.452190   -1.473750    4.587250
  H      -0.633170   -2.322230    6.089580
  C      -0.150500   -0.406620    7.753470
  H       0.881210   -0.322410    8.088540
  H      -0.572410   -1.333260    8.134490
  H      -0.699970    0.437220    8.160240
units angstrom
no_reorient
symmetry c1
}

set {
scf_type DF
basis aug-cc-pvtz
freeze_core True
guess SAD
}
energy('sapt2+')
--------------------------------------------------------------------------

  //              Dimer HF             //
    Molecular point group: c1
  Charge       = 0
  Multiplicity = 1
  Basis Set: AUG-CC-PVTZ
    Blend: AUG-CC-PVTZ
  Basis Set: (AUG-CC-PVTZ AUX)
    Blend: AUG-CC-PVTZ-JKFIT
  @DF-RHF Final Energy:  -438.84551427618248
    Total Energy =                       -438.8455142761824845
  //            Monomer A HF           //
    Molecular point group: c1
  Multiplicity = 1
  Basis Set: AUG-CC-PVTZ
    Blend: AUG-CC-PVTZ
  Basis Set: (AUG-CC-PVTZ AUX)
    Blend: AUG-CC-PVTZ-JKFIT
  @DF-RHF Final Energy:  -230.78115154310029
    Total Energy =                       -230.7811515431002931
  //            Monomer B HF           //
    Molecular point group: c1

    Geometry (in Angstrom), charge = 0, multiplicity = 1:

       Center              X                  Y                   Z               Mass
    ------------   -----------------  -----------------  -----------------  -----------------
      Gh(C)           0.940638563106     0.717260906627    -1.784236826403    12.000000000000
      Gh(H)           1.598908563106     1.261410906627    -1.121216826403     1.007825032230
      Gh(C)           1.427978563106    -0.316649093373    -2.582826826403    12.000000000000
      Gh(H)           2.477958563106    -0.574609093373    -2.552026826403     1.007825032230
      Gh(C)           0.562888563106    -1.017969093373    -3.421806826403    12.000000000000
      Gh(H)           0.941158563106    -1.820179093373    -4.040806826403     1.007825032230
      Gh(C)          -0.789751436894    -0.683829093373    -3.464436826403    12.000000000000
      Gh(H)          -1.460331436894    -1.226969093373    -4.116406826403     1.007825032230
      Gh(C)          -1.277321436894     0.351720906627    -2.668136826403    12.000000000000
      Gh(H)          -2.326491436894     0.612200906627    -2.703206826403     1.007825032230
      Gh(C)          -0.413361436894     1.051890906627    -1.826996826403    12.000000000000
      Gh(H)          -0.781031436894     1.849070906627    -1.195946826403     1.007825032230
         C           -0.088271436894     0.047000906627     3.411063173597    12.000000000000
         O            0.158218563106     1.090430906627     2.823823173597    15.994914619570
         N           -0.392311436894    -1.108009093373     2.759893173597    14.003074004430
         H           -0.367111436894    -1.115019093373     1.753263173597     1.007825032230
         H           -0.548091436894    -1.963499093373     3.255593173597     1.007825032230
         C           -0.065421436894    -0.047889093373     4.919483173597    12.000000000000
         H            0.966288563106     0.036320906627     5.254553173597     1.007825032230
         H           -0.487331436894    -0.974529093373     5.300503173597     1.007825032230
         H           -0.614891436894     0.795950906627     5.326253173597     1.007825032230

  Charge       = 0
  Multiplicity = 1
  Basis Set: AUG-CC-PVTZ
    Blend: AUG-CC-PVTZ
  Basis Set: (AUG-CC-PVTZ AUX)
    Blend: AUG-CC-PVTZ-JKFIT

    Orbital Energies [Eh]
    ---------------------

    Doubly Occupied:

       1A    -20.515714     2A    -15.588745     3A    -11.353936
       4A    -11.237836     5A     -1.376456     6A     -1.215324
       7A     -1.006462     8A     -0.802093     9A     -0.729782
      10A     -0.664890    11A     -0.616077    12A     -0.585547
      13A     -0.563480    14A     -0.525010    15A     -0.424302
      16A     -0.415699

  @DF-RHF Final Energy:  -208.06297330763874

   => Energetics <=

    Nuclear Repulsion Energy =            121.8373154344783416
    One-Electron Energy =                -524.5578720725351332
    Two-Electron Energy =                 194.6575833304180492
    Total Energy =                       -208.0629733076387424

  Dipole Moment: [D]
     X:    -0.7700      Y:    -3.9340      Z:     1.5013     Total:     4.2806

    SAPT Results
  --------------------------------------------------------------------------------------------------------
    Electrostatics                 -1.08500519 [mEh]      -0.68085103 [kcal/mol]      -2.84868072 [kJ/mol]
      Elst10,r                     -1.29416675 [mEh]      -0.81210190 [kcal/mol]      -3.39783435 [kJ/mol]
      Elst12,r                      0.20916157 [mEh]       0.13125087 [kcal/mol]       0.54915362 [kJ/mol]

    Exchange                        0.10271873 [mEh]       0.06445698 [kcal/mol]       0.26968799 [kJ/mol]
      Exch10                        0.08509808 [mEh]       0.05339985 [kcal/mol]       0.22342498 [kJ/mol]
      Exch10(S^2)                   0.08508855 [mEh]       0.05339387 [kcal/mol]       0.22339995 [kJ/mol]
      Exch11(S^2)                  -0.00114610 [mEh]      -0.00071919 [kcal/mol]      -0.00300909 [kJ/mol]
      Exch12(S^2)                   0.01876675 [mEh]       0.01177631 [kcal/mol]       0.04927210 [kJ/mol]

    Induction                      -0.15925242 [mEh]      -0.09993240 [kcal/mol]      -0.41811717 [kJ/mol]
      Ind20,r                      -0.19491620 [mEh]      -0.12231176 [kcal/mol]      -0.51175242 [kJ/mol]
      Ind22                         0.02394776 [mEh]       0.01502745 [kcal/mol]       0.06287483 [kJ/mol]
      Exch-Ind20,r                  0.02314313 [mEh]       0.01452253 [kcal/mol]       0.06076228 [kJ/mol]
      Exch-Ind22                   -0.00284341 [mEh]      -0.00178426 [kcal/mol]      -0.00746536 [kJ/mol]
      delta HF,r (2)               -0.00858370 [mEh]      -0.00538635 [kcal/mol]      -0.02253650 [kJ/mol]

    Dispersion                     -0.87300193 [mEh]      -0.54781698 [kcal/mol]      -2.29206626 [kJ/mol]
      Disp20                       -0.88496850 [mEh]      -0.55532612 [kcal/mol]      -2.32348447 [kJ/mol]
      Disp21                        0.18028927 [mEh]       0.11313323 [kcal/mol]       0.47334941 [kJ/mol]
      Disp22 (SDQ)                  0.02109608 [mEh]       0.01323799 [kcal/mol]       0.05538775 [kJ/mol]
      Disp22 (T)                   -0.19531857 [mEh]      -0.12256426 [kcal/mol]      -0.51280884 [kJ/mol]
      Est. Disp22 (T)              -0.20596197 [mEh]      -0.12924309 [kcal/mol]      -0.54075307 [kJ/mol]
      Exch-Disp20                   0.01654318 [mEh]       0.01038100 [kcal/mol]       0.04343412 [kJ/mol]

  Total HF                         -1.38942544 [mEh]      -0.87187763 [kcal/mol]      -3.64793600 [kJ/mol]
  Total SAPT0                      -2.25785076 [mEh]      -1.41682274 [kcal/mol]      -5.92798635 [kJ/mol]
  Total SAPT2                      -2.00996419 [mEh]      -1.26127157 [kcal/mol]      -5.27716025 [kJ/mol]
  Total SAPT2+                     -2.01454081 [mEh]      -1.26414344 [kcal/mol]      -5.28917616 [kJ/mol]

  Special recipe for scaled SAPT0 (see Manual):
    Electrostatics sSAPT0          -1.29416675 [mEh]      -0.81210190 [kcal/mol]      -3.39783435 [kJ/mol]
    Exchange sSAPT0                 0.08509808 [mEh]       0.05339985 [kcal/mol]       0.22342498 [kJ/mol]
    Induction sSAPT0               -0.18034899 [mEh]      -0.11317070 [kcal/mol]      -0.47350621 [kJ/mol]
    Dispersion sSAPT0              -0.86841975 [mEh]      -0.54494162 [kcal/mol]      -2.28003575 [kJ/mol]
  Total sSAPT0                     -2.25783742 [mEh]      -1.41681437 [kcal/mol]      -5.92795132 [kJ/mol]
  --------------------------------------------------------------------------------------------------------

*** Psi4 exiting successfully. Buy a developer a beer!
