                               Psi4 1.4a2.dev224

  ==> Input File <==

--------------------------------------------------------------------------
#Generated by lconvert.py for sapt job

memory 50 GB

molecule  {
0 1
  C       0.780150   -0.609910   -1.207560
  H       0.896190   -1.137640   -2.144140
  C       0.477940    0.750990   -1.207890
  H       0.356960    1.278170   -2.144050
  C       0.327290    1.431870   -0.000000
  H       0.091470    2.487140    0.000000
  C       0.477940    0.750990    1.207890
  H       0.356960    1.278170    2.144050
  C       0.780150   -0.609910    1.207560
  H       0.896190   -1.137640    2.144140
  C       0.931650   -1.289980    0.000000
  H       1.168490   -2.345210   -0.000000
--
0 1
  O      -3.687900   -0.375230    0.000000
  H      -3.523100   -1.319950    0.000000
  H      -2.800600   -0.003640    0.000000
units angstrom
no_reorient
symmetry c1
}

set {
scf_type DF
basis aug-cc-pvtz
freeze_core True
guess SAD
}
energy('sapt2+')
--------------------------------------------------------------------------

  //              Dimer HF             //
    Molecular point group: c1
  Charge       = 0
  Multiplicity = 1
  Basis Set: AUG-CC-PVTZ
    Blend: AUG-CC-PVTZ
  Basis Set: (AUG-CC-PVTZ AUX)
    Blend: AUG-CC-PVTZ-JKFIT
  @DF-RHF Final Energy:  -306.84351940823171
    Total Energy =                       -306.8435194082317139
  //            Monomer A HF           //
    Molecular point group: c1
  Multiplicity = 1
  Basis Set: AUG-CC-PVTZ
    Blend: AUG-CC-PVTZ
  Basis Set: (AUG-CC-PVTZ AUX)
    Blend: AUG-CC-PVTZ-JKFIT
  @DF-RHF Final Energy:  -230.78126414738040
    Total Energy =                       -230.7812641473803978
  //            Monomer B HF           //
    Molecular point group: c1

    Geometry (in Angstrom), charge = 0, multiplicity = 1:

       Center              X                  Y                   Z               Mass
    ------------   -----------------  -----------------  -----------------  -----------------
      Gh(C)           0.949461663920    -0.590954491531    -1.207560000000    12.000000000000
      Gh(H)           1.065501663920    -1.118684491531    -2.144140000000     1.007825032230
      Gh(C)           0.647251663920     0.769945508469    -1.207890000000    12.000000000000
      Gh(H)           0.526271663920     1.297125508469    -2.144050000000     1.007825032230
      Gh(C)           0.496601663920     1.450825508469     0.000000000000    12.000000000000
      Gh(H)           0.260781663920     2.506095508469     0.000000000000     1.007825032230
      Gh(C)           0.647251663920     0.769945508469     1.207890000000    12.000000000000
      Gh(H)           0.526271663920     1.297125508469     2.144050000000     1.007825032230
      Gh(C)           0.949461663920    -0.590954491531     1.207560000000    12.000000000000
      Gh(H)           1.065501663920    -1.118684491531     2.144140000000     1.007825032230
      Gh(C)           1.100961663920    -1.271024491531     0.000000000000    12.000000000000
      Gh(H)           1.337801663920    -2.326254491531     0.000000000000     1.007825032230
         O           -3.518588336080    -0.356274491531     0.000000000000    15.994914619570
         H           -3.353788336080    -1.300994491531     0.000000000000     1.007825032230
         H           -2.631288336080     0.015315508469     0.000000000000     1.007825032230

  Charge       = 0
  Multiplicity = 1
  Basis Set: AUG-CC-PVTZ
    Blend: AUG-CC-PVTZ
  Basis Set: (AUG-CC-PVTZ AUX)
    Blend: AUG-CC-PVTZ-JKFIT

    Orbital Energies [Eh]
    ---------------------

    Doubly Occupied:

       1A    -20.568498     2A     -1.353144     3A     -0.712762
       4A     -0.587615     5A     -0.510584

  @DF-RHF Final Energy:   -76.06022488719503

   => Energetics <=

    Nuclear Repulsion Energy =              9.1676829088237657
    One-Electron Energy =                -122.9906060403167061
    Two-Electron Energy =                  37.7626982442979013
    Total Energy =                        -76.0602248871950337

  Dipole Moment: [D]
     X:     1.7677      Y:    -0.9641      Z:     0.0000     Total:     2.0136

    SAPT Results
  --------------------------------------------------------------------------------------------------------
    Electrostatics                 -1.71565886 [mEh]      -1.07659219 [kcal/mol]      -4.50446172 [kJ/mol]
      Elst10,r                     -2.02914561 [mEh]      -1.27330809 [kcal/mol]      -5.32752106 [kJ/mol]
      Elst12,r                      0.31348675 [mEh]       0.19671590 [kcal/mol]       0.82305934 [kJ/mol]

    Exchange                        0.30790009 [mEh]       0.19321022 [kcal/mol]       0.80839156 [kJ/mol]
      Exch10                        0.26676935 [mEh]       0.16740029 [kcal/mol]       0.70040282 [kJ/mol]
      Exch10(S^2)                   0.26673689 [mEh]       0.16737993 [kcal/mol]       0.70031761 [kJ/mol]
      Exch11(S^2)                   0.01115003 [mEh]       0.00699675 [kcal/mol]       0.02927440 [kJ/mol]
      Exch12(S^2)                   0.02998071 [mEh]       0.01881318 [kcal/mol]       0.07871435 [kJ/mol]

    Induction                      -0.25784686 [mEh]      -0.16180135 [kcal/mol]      -0.67697684 [kJ/mol]
      Ind20,r                      -0.27339193 [mEh]      -0.17155603 [kcal/mol]      -0.71779042 [kJ/mol]
      Ind22                         0.01228687 [mEh]       0.00771013 [kcal/mol]       0.03225917 [kJ/mol]
      Exch-Ind20,r                  0.04753507 [mEh]       0.02982871 [kcal/mol]       0.12480331 [kJ/mol]
      Exch-Ind22                   -0.00213634 [mEh]      -0.00134057 [kcal/mol]      -0.00560895 [kJ/mol]
      delta HF,r (2)               -0.04214053 [mEh]      -0.02644358 [kcal/mol]      -0.11063994 [kJ/mol]

    Dispersion                     -1.21042061 [mEh]      -0.75955040 [kcal/mol]      -3.17795888 [kJ/mol]
      Disp20                       -1.22972484 [mEh]      -0.77166399 [kcal/mol]      -3.22864213 [kJ/mol]
      Disp21                        0.21739855 [mEh]       0.13641965 [kcal/mol]       0.57077980 [kJ/mol]
      Disp22 (SDQ)                  0.02668649 [mEh]       0.01674603 [kcal/mol]       0.07006537 [kJ/mol]
      Disp22 (T)                   -0.24639530 [mEh]      -0.15461539 [kcal/mol]      -0.64691078 [kJ/mol]
      Est. Disp22 (T)              -0.26469755 [mEh]      -0.16610022 [kcal/mol]      -0.69496332 [kJ/mol]
      Exch-Disp20                   0.03991674 [mEh]       0.02504813 [kcal/mol]       0.10480139 [kJ/mol]

  Total HF                         -2.03037366 [mEh]      -1.27407870 [kcal/mol]      -5.33074530 [kJ/mol]
  Total SAPT0                      -3.22018176 [mEh]      -2.02069456 [kcal/mol]      -8.45458605 [kJ/mol]
  Total SAPT2                      -2.85541374 [mEh]      -1.79179917 [kcal/mol]      -7.49688774 [kJ/mol]
  Total SAPT2+                     -2.87602625 [mEh]      -1.80473372 [kcal/mol]      -7.55100588 [kJ/mol]

  Special recipe for scaled SAPT0 (see Manual):
    Electrostatics sSAPT0          -2.02914561 [mEh]      -1.27330809 [kcal/mol]      -5.32752106 [kJ/mol]
    Exchange sSAPT0                 0.26676935 [mEh]       0.16740029 [kcal/mol]       0.70040282 [kJ/mol]
    Induction sSAPT0               -0.26798004 [mEh]      -0.16816001 [kcal/mol]      -0.70358150 [kJ/mol]
    Dispersion sSAPT0              -1.18979353 [mEh]      -0.74660671 [kcal/mol]      -3.12380249 [kJ/mol]
  Total sSAPT0                     -3.22014984 [mEh]      -2.02067453 [kcal/mol]      -8.45450223 [kJ/mol]
  --------------------------------------------------------------------------------------------------------

*** Psi4 exiting successfully. Buy a developer a beer!
