                               Psi4 1.4a2.dev224

  ==> Input File <==

--------------------------------------------------------------------------
#Generated by lconvert.py for sapt job

memory 50 GB

molecule  {
0 1
  C       0.780150   -0.609910   -1.207560
  H       0.896190   -1.137640   -2.144140
  C       0.477940    0.750990   -1.207890
  H       0.356960    1.278170   -2.144050
  C       0.327290    1.431870   -0.000000
  H       0.091470    2.487140    0.000000
  C       0.477940    0.750990    1.207890
  H       0.356960    1.278170    2.144050
  C       0.780150   -0.609910    1.207560
  H       0.896190   -1.137640    2.144140
  C       0.931650   -1.289980    0.000000
  H       1.168490   -2.345210   -0.000000
--
0 1
  O      -4.618430   -0.479680    0.000000
  H      -4.453630   -1.424400    0.000000
  H      -3.731130   -0.108090    0.000000
units angstrom
no_reorient
symmetry c1
}

set {
scf_type DF
basis aug-cc-pvtz
freeze_core True
guess SAD
}
energy('sapt2+')
--------------------------------------------------------------------------

  //              Dimer HF             //
    Molecular point group: c1
  Charge       = 0
  Multiplicity = 1
  Basis Set: AUG-CC-PVTZ
    Blend: AUG-CC-PVTZ
  Basis Set: (AUG-CC-PVTZ AUX)
    Blend: AUG-CC-PVTZ-JKFIT
  @DF-RHF Final Energy:  -306.84255876927398
    Total Energy =                       -306.8425587692739782
  //            Monomer A HF           //
    Molecular point group: c1
  Multiplicity = 1
  Basis Set: AUG-CC-PVTZ
    Blend: AUG-CC-PVTZ
  Basis Set: (AUG-CC-PVTZ AUX)
    Blend: AUG-CC-PVTZ-JKFIT
  @DF-RHF Final Energy:  -230.78122350758568
    Total Energy =                       -230.7812235075856506
  //            Monomer B HF           //
    Molecular point group: c1

    Geometry (in Angstrom), charge = 0, multiplicity = 1:

       Center              X                  Y                   Z               Mass
    ------------   -----------------  -----------------  -----------------  -----------------
      Gh(C)           1.123933913976    -0.571370355052    -1.207560000000    12.000000000000
      Gh(H)           1.239973913976    -1.099100355052    -2.144140000000     1.007825032230
      Gh(C)           0.821723913976     0.789529644948    -1.207890000000    12.000000000000
      Gh(H)           0.700743913976     1.316709644948    -2.144050000000     1.007825032230
      Gh(C)           0.671073913976     1.470409644948     0.000000000000    12.000000000000
      Gh(H)           0.435253913976     2.525679644948     0.000000000000     1.007825032230
      Gh(C)           0.821723913976     0.789529644948     1.207890000000    12.000000000000
      Gh(H)           0.700743913976     1.316709644948     2.144050000000     1.007825032230
      Gh(C)           1.123933913976    -0.571370355052     1.207560000000    12.000000000000
      Gh(H)           1.239973913976    -1.099100355052     2.144140000000     1.007825032230
      Gh(C)           1.275433913976    -1.251440355052     0.000000000000    12.000000000000
      Gh(H)           1.512273913976    -2.306670355052     0.000000000000     1.007825032230
         O           -4.274646086024    -0.441140355052     0.000000000000    15.994914619570
         H           -4.109846086024    -1.385860355052     0.000000000000     1.007825032230
         H           -3.387346086024    -0.069550355052     0.000000000000     1.007825032230

  Charge       = 0
  Multiplicity = 1
  Basis Set: AUG-CC-PVTZ
    Blend: AUG-CC-PVTZ
  Basis Set: (AUG-CC-PVTZ AUX)
    Blend: AUG-CC-PVTZ-JKFIT

    Orbital Energies [Eh]
    ---------------------

    Doubly Occupied:

       1A    -20.568522     2A     -1.353168     3A     -0.712786
       4A     -0.587636     5A     -0.510592

  @DF-RHF Final Energy:   -76.06020503465990

   => Energetics <=

    Nuclear Repulsion Energy =              9.1676829088237657
    One-Electron Energy =                -122.9903667328743921
    Two-Electron Energy =                  37.7624787893907268
    Total Energy =                        -76.0602050346599015

  Dipole Moment: [D]
     X:     1.7679      Y:    -0.9646      Z:     0.0000     Total:     2.0139

    SAPT Results
  --------------------------------------------------------------------------------------------------------
    Electrostatics                 -0.89473156 [mEh]      -0.56145253 [kcal/mol]      -2.34911739 [kJ/mol]
      Elst10,r                     -1.07460831 [mEh]      -0.67432689 [kcal/mol]      -2.82138373 [kJ/mol]
      Elst12,r                      0.17987675 [mEh]       0.11287436 [kcal/mol]       0.47226633 [kJ/mol]

    Exchange                        0.01416818 [mEh]       0.00889067 [kcal/mol]       0.03719856 [kJ/mol]
      Exch10                        0.01179976 [mEh]       0.00740446 [kcal/mol]       0.03098026 [kJ/mol]
      Exch10(S^2)                   0.01179970 [mEh]       0.00740443 [kcal/mol]       0.03098012 [kJ/mol]
      Exch11(S^2)                   0.00045011 [mEh]       0.00028245 [kcal/mol]       0.00118176 [kJ/mol]
      Exch12(S^2)                   0.00191832 [mEh]       0.00120376 [kcal/mol]       0.00503654 [kJ/mol]

    Induction                      -0.06140308 [mEh]      -0.03853101 [kcal/mol]      -0.16121377 [kJ/mol]
      Ind20,r                      -0.06638446 [mEh]      -0.04165688 [kcal/mol]      -0.17429238 [kJ/mol]
      Ind22                         0.00620511 [mEh]       0.00389377 [kcal/mol]       0.01629152 [kJ/mol]
      Exch-Ind20,r                  0.00202964 [mEh]       0.00127362 [kcal/mol]       0.00532882 [kJ/mol]
      Exch-Ind22                   -0.00018972 [mEh]      -0.00011905 [kcal/mol]      -0.00049810 [kJ/mol]
      delta HF,r (2)               -0.00306366 [mEh]      -0.00192248 [kcal/mol]      -0.00804364 [kJ/mol]

    Dispersion                     -0.34743356 [mEh]      -0.21801785 [kcal/mol]      -0.91218668 [kJ/mol]
      Disp20                       -0.35164276 [mEh]      -0.22065917 [kcal/mol]      -0.92323795 [kJ/mol]
      Disp21                        0.07171104 [mEh]       0.04499936 [kcal/mol]       0.18827731 [kJ/mol]
      Disp22 (SDQ)                  0.00690157 [mEh]       0.00433080 [kcal/mol]       0.01812008 [kJ/mol]
      Disp22 (T)                   -0.07337426 [mEh]      -0.04604304 [kcal/mol]      -0.19264409 [kJ/mol]
      Est. Disp22 (T)              -0.07673683 [mEh]      -0.04815309 [kcal/mol]      -0.20147253 [kJ/mol]
      Exch-Disp20                   0.00233342 [mEh]       0.00146425 [kcal/mol]       0.00612641 [kJ/mol]

  Total HF                         -1.13022703 [mEh]      -0.70922817 [kcal/mol]      -2.96741065 [kJ/mol]
  Total SAPT0                      -1.47953637 [mEh]      -0.92842309 [kcal/mol]      -3.88452220 [kJ/mol]
  Total SAPT2                      -1.29127580 [mEh]      -0.81028780 [kcal/mol]      -3.39024414 [kJ/mol]
  Total SAPT2+                     -1.28940002 [mEh]      -0.80911073 [kcal/mol]      -3.38531928 [kJ/mol]

  Special recipe for scaled SAPT0 (see Manual):
    Electrostatics sSAPT0          -1.07460831 [mEh]      -0.67432689 [kcal/mol]      -2.82138373 [kJ/mol]
    Exchange sSAPT0                 0.01179976 [mEh]       0.00740446 [kcal/mol]       0.03098026 [kJ/mol]
    Induction sSAPT0               -0.06741845 [mEh]      -0.04230572 [kcal/mol]      -0.17700711 [kJ/mol]
    Dispersion sSAPT0              -0.34930931 [mEh]      -0.21919490 [kcal/mol]      -0.91711146 [kJ/mol]
  Total sSAPT0                     -1.47953631 [mEh]      -0.92842305 [kcal/mol]      -3.88452204 [kJ/mol]
  --------------------------------------------------------------------------------------------------------

*** Psi4 exiting successfully. Buy a developer a beer!
