                               Psi4 1.4a2.dev224

  ==> Input File <==

--------------------------------------------------------------------------
#Generated by lconvert.py for sapt job

memory 50 GB

molecule  {
0 1
  C       0.780150   -0.609910   -1.207560
  H       0.896190   -1.137640   -2.144140
  C       0.477940    0.750990   -1.207890
  H       0.356960    1.278170   -2.144050
  C       0.327290    1.431870   -0.000000
  H       0.091470    2.487140    0.000000
  C       0.477940    0.750990    1.207890
  H       0.356960    1.278170    2.144050
  C       0.780150   -0.609910    1.207560
  H       0.896190   -1.137640    2.144140
  C       0.931650   -1.289980    0.000000
  H       1.168490   -2.345210   -0.000000
--
0 1
  O      -5.548970   -0.584130    0.000000
  H      -5.384160   -1.528850    0.000000
  H      -4.661670   -0.212540    0.000000
units angstrom
no_reorient
symmetry c1
}

set {
scf_type DF
basis aug-cc-pvtz
freeze_core True
guess SAD
}
energy('sapt2+')
--------------------------------------------------------------------------

  //              Dimer HF             //
    Molecular point group: c1
  Charge       = 0
  Multiplicity = 1
  Basis Set: AUG-CC-PVTZ
    Blend: AUG-CC-PVTZ
  Basis Set: (AUG-CC-PVTZ AUX)
    Blend: AUG-CC-PVTZ-JKFIT
  @DF-RHF Final Energy:  -306.84204798370382
    Total Energy =                       -306.8420479837038215
  //            Monomer A HF           //
    Molecular point group: c1
  Multiplicity = 1
  Basis Set: AUG-CC-PVTZ
    Blend: AUG-CC-PVTZ
  Basis Set: (AUG-CC-PVTZ AUX)
    Blend: AUG-CC-PVTZ-JKFIT
  @DF-RHF Final Energy:  -230.78121426974693
    Total Energy =                       -230.7812142697468971
  //            Monomer B HF           //
    Molecular point group: c1

    Geometry (in Angstrom), charge = 0, multiplicity = 1:

       Center              X                  Y                   Z               Mass
    ------------   -----------------  -----------------  -----------------  -----------------
      Gh(C)           1.298407934090    -0.551786218572    -1.207560000000    12.000000000000
      Gh(H)           1.414447934090    -1.079516218572    -2.144140000000     1.007825032230
      Gh(C)           0.996197934090     0.809113781428    -1.207890000000    12.000000000000
      Gh(H)           0.875217934090     1.336293781428    -2.144050000000     1.007825032230
      Gh(C)           0.845547934090     1.489993781428     0.000000000000    12.000000000000
      Gh(H)           0.609727934090     2.545263781428     0.000000000000     1.007825032230
      Gh(C)           0.996197934090     0.809113781428     1.207890000000    12.000000000000
      Gh(H)           0.875217934090     1.336293781428     2.144050000000     1.007825032230
      Gh(C)           1.298407934090    -0.551786218572     1.207560000000    12.000000000000
      Gh(H)           1.414447934090    -1.079516218572     2.144140000000     1.007825032230
      Gh(C)           1.449907934090    -1.231856218572     0.000000000000    12.000000000000
      Gh(H)           1.686747934090    -2.287086218572     0.000000000000     1.007825032230
         O           -5.030712065910    -0.526006218572     0.000000000000    15.994914619570
         H           -4.865902065910    -1.470726218572     0.000000000000     1.007825032230
         H           -4.143412065910    -0.154416218572     0.000000000000     1.007825032230

  Charge       = 0
  Multiplicity = 1
  Basis Set: AUG-CC-PVTZ
    Blend: AUG-CC-PVTZ
  Basis Set: (AUG-CC-PVTZ AUX)
    Blend: AUG-CC-PVTZ-JKFIT

    Orbital Energies [Eh]
    ---------------------

    Doubly Occupied:

       1A    -20.568521     2A     -1.353169     3A     -0.712786
       4A     -0.587639     5A     -0.510594

  @DF-RHF Final Energy:   -76.06020104507435

   => Energetics <=

    Nuclear Repulsion Energy =              9.1676761272815579
    One-Electron Energy =                -122.9903336038456274
    Two-Electron Energy =                  37.7624564314897242
    Total Energy =                        -76.0602010450743506

  Dipole Moment: [D]
     X:     1.7679      Y:    -0.9646      Z:    -0.0000     Total:     2.0139

    SAPT Results
  --------------------------------------------------------------------------------------------------------
    Electrostatics                 -0.50704919 [mEh]      -0.31817817 [kcal/mol]      -1.33125746 [kJ/mol]
      Elst10,r                     -0.61010645 [mEh]      -0.38284758 [kcal/mol]      -1.60183426 [kJ/mol]
      Elst12,r                      0.10305726 [mEh]       0.06466941 [kcal/mol]       0.27057680 [kJ/mol]

    Exchange                        0.00064373 [mEh]       0.00040395 [kcal/mol]       0.00169012 [kJ/mol]
      Exch10                        0.00052463 [mEh]       0.00032921 [kcal/mol]       0.00137741 [kJ/mol]
      Exch10(S^2)                   0.00052463 [mEh]       0.00032921 [kcal/mol]       0.00137741 [kJ/mol]
      Exch11(S^2)                   0.00001729 [mEh]       0.00001085 [kcal/mol]       0.00004539 [kJ/mol]
      Exch12(S^2)                   0.00010181 [mEh]       0.00006389 [kcal/mol]       0.00026732 [kJ/mol]

    Induction                      -0.02058405 [mEh]      -0.01291669 [kcal/mol]      -0.05404341 [kJ/mol]
      Ind20,r                      -0.02275311 [mEh]      -0.01427779 [kcal/mol]      -0.05973828 [kJ/mol]
      Ind22                         0.00251494 [mEh]       0.00157815 [kcal/mol]       0.00660298 [kJ/mol]
      Exch-Ind20,r                  0.00010793 [mEh]       0.00006773 [kcal/mol]       0.00028338 [kJ/mol]
      Exch-Ind22                   -0.00001193 [mEh]      -0.00000749 [kcal/mol]      -0.00003132 [kJ/mol]
      delta HF,r (2)               -0.00044189 [mEh]      -0.00027729 [kcal/mol]      -0.00116017 [kJ/mol]

    Dispersion                     -0.12211110 [mEh]      -0.07662587 [kcal/mol]      -0.32060264 [kJ/mol]
      Disp20                       -0.12513502 [mEh]      -0.07852341 [kcal/mol]      -0.32854194 [kJ/mol]
      Disp21                        0.02790439 [mEh]       0.01751027 [kcal/mol]       0.07326296 [kJ/mol]
      Disp22 (SDQ)                  0.00222872 [mEh]       0.00139855 [kcal/mol]       0.00585152 [kJ/mol]
      Disp22 (T)                   -0.02638619 [mEh]      -0.01655759 [kcal/mol]      -0.06927694 [kJ/mol]
      Est. Disp22 (T)              -0.02723192 [mEh]      -0.01708829 [kcal/mol]      -0.07149739 [kJ/mol]
      Exch-Disp20                   0.00012273 [mEh]       0.00007701 [kcal/mol]       0.00032223 [kJ/mol]

  Total HF                         -0.63266888 [mEh]      -0.39700572 [kcal/mol]      -1.66107192 [kJ/mol]
  Total SAPT0                      -0.75768117 [mEh]      -0.47545211 [kcal/mol]      -1.98929164 [kJ/mol]
  Total SAPT2                      -0.65200179 [mEh]      -0.40913730 [kcal/mol]      -1.71183047 [kJ/mol]
  Total SAPT2+                     -0.64910060 [mEh]      -0.40731678 [kcal/mol]      -1.70421339 [kJ/mol]

  Special recipe for scaled SAPT0 (see Manual):
    Electrostatics sSAPT0          -0.61010645 [mEh]      -0.38284758 [kcal/mol]      -1.60183426 [kJ/mol]
    Exchange sSAPT0                 0.00052463 [mEh]       0.00032921 [kcal/mol]       0.00137741 [kJ/mol]
    Induction sSAPT0               -0.02308706 [mEh]      -0.01448735 [kcal/mol]      -0.06061508 [kJ/mol]
    Dispersion sSAPT0              -0.12501229 [mEh]      -0.07844639 [kcal/mol]      -0.32821972 [kJ/mol]
  Total sSAPT0                     -0.75768117 [mEh]      -0.47545211 [kcal/mol]      -1.98929164 [kJ/mol]
  --------------------------------------------------------------------------------------------------------

*** Psi4 exiting successfully. Buy a developer a beer!
