                               Psi4 1.4a2.dev224

  ==> Input File <==

--------------------------------------------------------------------------
#Generated by lconvert.py for sapt job

memory 50 GB

molecule  {
0 1
  C       0.759750    1.031270    0.373770
  H       1.435020    1.875660    0.374710
  C       1.266620   -0.267360    0.421270
  H       2.334920   -0.429180    0.459430
  C       0.395320   -1.355990    0.424900
  H       0.788660   -2.362490    0.463030
  C      -0.982210   -1.146650    0.381270
  H      -1.657660   -1.991140    0.385120
  C      -1.489350    0.151150    0.337570
  H      -2.557950    0.313750    0.307720
  C      -0.618770    1.240330    0.333880
  H      -1.011760    2.247110    0.304370
--
0 1
  O      -0.087650    0.231070    5.317220
  H      -0.001540    0.280950    4.360030
  C      -0.983800   -0.826540    5.600270
  H      -1.079520   -0.883280    6.681210
  H      -1.975950   -0.654840    5.176480
  H      -0.617330   -1.789580    5.237360
units angstrom
no_reorient
symmetry c1
}

set {
scf_type DF
basis aug-cc-pvtz
freeze_core True
guess SAD
}
energy('sapt2+')
--------------------------------------------------------------------------

  //              Dimer HF             //
    Molecular point group: c1
  Charge       = 0
  Multiplicity = 1
  Basis Set: AUG-CC-PVTZ
    Blend: AUG-CC-PVTZ
  Basis Set: (AUG-CC-PVTZ AUX)
    Blend: AUG-CC-PVTZ-JKFIT
  @DF-RHF Final Energy:  -345.87455013940007
    Total Energy =                       -345.8745501394000712
  //            Monomer A HF           //
    Molecular point group: c1
  Multiplicity = 1
  Basis Set: AUG-CC-PVTZ
    Blend: AUG-CC-PVTZ
  Basis Set: (AUG-CC-PVTZ AUX)
    Blend: AUG-CC-PVTZ-JKFIT
  @DF-RHF Final Energy:  -230.78122819143351
    Total Energy =                       -230.7812281914335131
  //            Monomer B HF           //
    Molecular point group: c1

    Geometry (in Angstrom), charge = 0, multiplicity = 1:

       Center              X                  Y                   Z               Mass
    ------------   -----------------  -----------------  -----------------  -----------------
      Gh(C)           0.992398250422     1.156724062609    -1.474627293844    12.000000000000
      Gh(H)           1.667668250422     2.001114062609    -1.473687293844     1.007825032230
      Gh(C)           1.499268250422    -0.141905937391    -1.427127293844    12.000000000000
      Gh(H)           2.567568250422    -0.303725937391    -1.388967293844     1.007825032230
      Gh(C)           0.627968250422    -1.230535937391    -1.423497293844    12.000000000000
      Gh(H)           1.021308250422    -2.237035937391    -1.385367293844     1.007825032230
      Gh(C)          -0.749561749578    -1.021195937391    -1.467127293844    12.000000000000
      Gh(H)          -1.425011749578    -1.865685937391    -1.463277293844     1.007825032230
      Gh(C)          -1.256701749578     0.276604062609    -1.510827293844    12.000000000000
      Gh(H)          -2.325301749578     0.439204062609    -1.540677293844     1.007825032230
      Gh(C)          -0.386121749578     1.365784062609    -1.514517293844    12.000000000000
      Gh(H)          -0.779111749578     2.372564062609    -1.544027293844     1.007825032230
         O            0.144998250422     0.356524062609     3.468822706156    15.994914619570
         H            0.231108250422     0.406404062609     2.511632706156     1.007825032230
         C           -0.751151749578    -0.701085937391     3.751872706156    12.000000000000
         H           -0.846871749578    -0.757825937391     4.832812706156     1.007825032230
         H           -1.743301749578    -0.529385937391     3.328082706156     1.007825032230
         H           -0.384681749578    -1.664125937391     3.388962706156     1.007825032230

  Charge       = 0
  Multiplicity = 1
  Basis Set: AUG-CC-PVTZ
    Blend: AUG-CC-PVTZ
  Basis Set: (AUG-CC-PVTZ AUX)
    Blend: AUG-CC-PVTZ-JKFIT

    Orbital Energies [Eh]
    ---------------------

    Doubly Occupied:

       1A    -20.560354     2A    -11.270447     3A     -1.360241
       4A     -0.925496     5A     -0.692760     6A     -0.620851
       7A     -0.594740     8A     -0.505090     9A     -0.451375

  @DF-RHF Final Energy:  -115.09203121177610

   => Energetics <=

    Nuclear Repulsion Energy =             40.4152785680142728
    One-Electron Energy =                -237.0519091787377306
    Two-Electron Energy =                  81.5445993989473408
    Total Energy =                       -115.0920312117761029

  Dipole Moment: [D]
     X:    -0.8311      Y:    -1.0627      Z:    -1.2049     Total:     1.8088

    SAPT Results
  --------------------------------------------------------------------------------------------------------
    Electrostatics                 -1.04012823 [mEh]      -0.65269032 [kcal/mol]      -2.73085629 [kJ/mol]
      Elst10,r                     -1.22567103 [mEh]      -0.76912019 [kcal/mol]      -3.21799886 [kJ/mol]
      Elst12,r                      0.18554280 [mEh]       0.11642987 [kcal/mol]       0.48714257 [kJ/mol]

    Exchange                        0.04032270 [mEh]       0.02530288 [kcal/mol]       0.10586723 [kJ/mol]
      Exch10                        0.03473488 [mEh]       0.02179647 [kcal/mol]       0.09119641 [kJ/mol]
      Exch10(S^2)                   0.03473488 [mEh]       0.02179647 [kcal/mol]       0.09119642 [kJ/mol]
      Exch11(S^2)                   0.00082140 [mEh]       0.00051544 [kcal/mol]       0.00215659 [kJ/mol]
      Exch12(S^2)                   0.00476642 [mEh]       0.00299097 [kcal/mol]       0.01251423 [kJ/mol]

    Induction                      -0.09378133 [mEh]      -0.05884867 [kcal/mol]      -0.24622284 [kJ/mol]
      Ind20,r                      -0.09789611 [mEh]      -0.06143073 [kcal/mol]      -0.25702619 [kJ/mol]
      Ind22                         0.00640940 [mEh]       0.00402196 [kcal/mol]       0.01682787 [kJ/mol]
      Exch-Ind20,r                  0.00596730 [mEh]       0.00374454 [kcal/mol]       0.01566715 [kJ/mol]
      Exch-Ind22                   -0.00039069 [mEh]      -0.00024516 [kcal/mol]      -0.00102575 [kJ/mol]
      delta HF,r (2)               -0.00787123 [mEh]      -0.00493927 [kcal/mol]      -0.02066592 [kJ/mol]

    Dispersion                     -0.77769210 [mEh]      -0.48800916 [kcal/mol]      -2.04183032 [kJ/mol]
      Disp20                       -0.81744636 [mEh]      -0.51295533 [kcal/mol]      -2.14620511 [kJ/mol]
      Disp21                        0.17037586 [mEh]       0.10691247 [kcal/mol]       0.44732176 [kJ/mol]
      Disp22 (SDQ)                  0.03261308 [mEh]       0.02046502 [kcal/mol]       0.08562562 [kJ/mol]
      Disp22 (T)                   -0.16308487 [mEh]      -0.10233730 [kcal/mol]      -0.42817927 [kJ/mol]
      Est. Disp22 (T)              -0.17074174 [mEh]      -0.10714206 [kcal/mol]      -0.44828239 [kJ/mol]
      Exch-Disp20                   0.00750706 [mEh]       0.00471075 [kcal/mol]       0.01970978 [kJ/mol]

  Total HF                         -1.29073619 [mEh]      -0.80994919 [kcal/mol]      -3.38882740 [kJ/mol]
  Total SAPT0                      -2.10067549 [mEh]      -1.31819377 [kcal/mol]      -5.51532273 [kJ/mol]
  Total SAPT2                      -1.90352615 [mEh]      -1.19448069 [kcal/mol]      -4.99770722 [kJ/mol]
  Total SAPT2+                     -1.87127895 [mEh]      -1.17424527 [kcal/mol]      -4.91304222 [kJ/mol]

  Special recipe for scaled SAPT0 (see Manual):
    Electrostatics sSAPT0          -1.22567103 [mEh]      -0.76912019 [kcal/mol]      -3.21799886 [kJ/mol]
    Exchange sSAPT0                 0.03473488 [mEh]       0.02179647 [kcal/mol]       0.09119641 [kJ/mol]
    Induction sSAPT0               -0.09980004 [mEh]      -0.06262547 [kcal/mol]      -0.26202496 [kJ/mol]
    Dispersion sSAPT0              -0.80993930 [mEh]      -0.50824458 [kcal/mol]      -2.12649533 [kJ/mol]
  Total sSAPT0                     -2.10067549 [mEh]      -1.31819377 [kcal/mol]      -5.51532274 [kJ/mol]
  --------------------------------------------------------------------------------------------------------

*** Psi4 exiting successfully. Buy a developer a beer!
