                               Psi4 1.4a2.dev224

  ==> Input File <==

--------------------------------------------------------------------------
#Generated by lconvert.py for sapt job

memory 50 GB

molecule  {
0 1
  C       0.759750    1.031270    0.373770
  H       1.435020    1.875660    0.374710
  C       1.266620   -0.267360    0.421270
  H       2.334920   -0.429180    0.459430
  C       0.395320   -1.355990    0.424900
  H       0.788660   -2.362490    0.463030
  C      -0.982210   -1.146650    0.381270
  H      -1.657660   -1.991140    0.385120
  C      -1.489350    0.151150    0.337570
  H      -2.557950    0.313750    0.307720
  C      -0.618770    1.240330    0.333880
  H      -1.011760    2.247110    0.304370
--
0 1
  O      -0.020250    0.268660    4.500370
  H       0.065850    0.318540    3.543180
  C      -0.916400   -0.788950    4.783430
  H      -1.012120   -0.845680    5.864360
  H      -1.908550   -0.617250    4.359630
  H      -0.549940   -1.751990    4.420510
units angstrom
no_reorient
symmetry c1
}

set {
scf_type DF
basis aug-cc-pvtz
freeze_core True
guess SAD
}
energy('sapt2+')
--------------------------------------------------------------------------

  //              Dimer HF             //
    Molecular point group: c1
  Charge       = 0
  Multiplicity = 1
  Basis Set: AUG-CC-PVTZ
    Blend: AUG-CC-PVTZ
  Basis Set: (AUG-CC-PVTZ AUX)
    Blend: AUG-CC-PVTZ-JKFIT
  @DF-RHF Final Energy:  -345.87538943560497
    Total Energy =                       -345.8753894356049727
  //            Monomer A HF           //
    Molecular point group: c1
  Multiplicity = 1
  Basis Set: AUG-CC-PVTZ
    Blend: AUG-CC-PVTZ
  Basis Set: (AUG-CC-PVTZ AUX)
    Blend: AUG-CC-PVTZ-JKFIT
  @DF-RHF Final Energy:  -230.78128313660886
    Total Energy =                       -230.7812831366088631
  //            Monomer B HF           //
    Molecular point group: c1

    Geometry (in Angstrom), charge = 0, multiplicity = 1:

       Center              X                  Y                   Z               Mass
    ------------   -----------------  -----------------  -----------------  -----------------
      Gh(C)           0.972788141830     1.145787014590    -1.236962704740    12.000000000000
      Gh(H)           1.648058141830     1.990177014590    -1.236022704740     1.007825032230
      Gh(C)           1.479658141830    -0.152842985410    -1.189462704740    12.000000000000
      Gh(H)           2.547958141830    -0.314662985410    -1.151302704740     1.007825032230
      Gh(C)           0.608358141830    -1.241472985410    -1.185832704740    12.000000000000
      Gh(H)           1.001698141830    -2.247972985410    -1.147702704740     1.007825032230
      Gh(C)          -0.769171858170    -1.032132985410    -1.229462704740    12.000000000000
      Gh(H)          -1.444621858170    -1.876622985410    -1.225612704740     1.007825032230
      Gh(C)          -1.276311858170     0.265667014590    -1.273162704740    12.000000000000
      Gh(H)          -2.344911858170     0.428267014590    -1.303012704740     1.007825032230
      Gh(C)          -0.405731858170     1.354847014590    -1.276852704740    12.000000000000
      Gh(H)          -0.798721858170     2.361627014590    -1.306362704740     1.007825032230
         O            0.192788141830     0.383177014590     2.889637295260    15.994914619570
         H            0.278888141830     0.433057014590     1.932447295260     1.007825032230
         C           -0.703361858170    -0.674432985410     3.172697295260    12.000000000000
         H           -0.799081858170    -0.731162985410     4.253627295260     1.007825032230
         H           -1.695511858170    -0.502732985410     2.748897295260     1.007825032230
         H           -0.336901858170    -1.637472985410     2.809777295260     1.007825032230

  Charge       = 0
  Multiplicity = 1
  Basis Set: AUG-CC-PVTZ
    Blend: AUG-CC-PVTZ
  Basis Set: (AUG-CC-PVTZ AUX)
    Blend: AUG-CC-PVTZ-JKFIT

    Orbital Energies [Eh]
    ---------------------

    Doubly Occupied:

       1A    -20.560336     2A    -11.270447     3A     -1.360226
       4A     -0.925491     5A     -0.692749     6A     -0.620847
       7A     -0.594735     8A     -0.505086     9A     -0.451371

  @DF-RHF Final Energy:  -115.09206317728868

   => Energetics <=

    Nuclear Repulsion Energy =             40.4152797526102106
    One-Electron Energy =                -237.0521108542448303
    Two-Electron Energy =                  81.5447679243459334
    Total Energy =                       -115.0920631772886793

  Dipole Moment: [D]
     X:    -0.8309      Y:    -1.0625      Z:    -1.2051     Total:     1.8087

    SAPT Results
  --------------------------------------------------------------------------------------------------------
    Electrostatics                 -1.93858533 [mEh]      -1.21648066 [kcal/mol]      -5.08975508 [kJ/mol]
      Elst10,r                     -2.22879281 [mEh]      -1.39858860 [kcal/mol]      -5.85169471 [kJ/mol]
      Elst12,r                      0.29020748 [mEh]       0.18210794 [kcal/mol]       0.76193963 [kJ/mol]

    Exchange                        0.61841264 [mEh]       0.38805979 [kcal/mol]       1.62364216 [kJ/mol]
      Exch10                        0.55456107 [mEh]       0.34799233 [kcal/mol]       1.45599989 [kJ/mol]
      Exch10(S^2)                   0.55449989 [mEh]       0.34795394 [kcal/mol]       1.45583927 [kJ/mol]
      Exch11(S^2)                   0.01808835 [mEh]       0.01135061 [kcal/mol]       0.04749095 [kJ/mol]
      Exch12(S^2)                   0.04576322 [mEh]       0.02871685 [kcal/mol]       0.12015132 [kJ/mol]

    Induction                      -0.36524364 [mEh]      -0.22919385 [kcal/mol]      -0.95894705 [kJ/mol]
      Ind20,r                      -0.39740512 [mEh]      -0.24937548 [kcal/mol]      -1.04338701 [kJ/mol]
      Ind22                         0.00500475 [mEh]       0.00314053 [kcal/mol]       0.01313998 [kJ/mol]
      Exch-Ind20,r                  0.10786655 [mEh]       0.06768728 [kcal/mol]       0.28320359 [kJ/mol]
      Exch-Ind22                   -0.00135843 [mEh]      -0.00085243 [kcal/mol]      -0.00356655 [kJ/mol]
      delta HF,r (2)               -0.07935139 [mEh]      -0.04979375 [kcal/mol]      -0.20833706 [kJ/mol]

    Dispersion                     -2.33298040 [mEh]      -1.46396730 [kcal/mol]      -6.12523919 [kJ/mol]
      Disp20                       -2.46783741 [mEh]      -1.54859136 [kcal/mol]      -6.47930623 [kJ/mol]
      Disp21                        0.45125614 [mEh]       0.28316750 [kcal/mol]       1.18477282 [kJ/mol]
      Disp22 (SDQ)                  0.10263669 [mEh]       0.06440550 [kcal/mol]       0.26947260 [kJ/mol]
      Disp22 (T)                   -0.47703698 [mEh]      -0.29934523 [kcal/mol]      -1.25246043 [kJ/mol]
      Est. Disp22 (T)              -0.50936064 [mEh]      -0.31962863 [kcal/mol]      -1.33732618 [kJ/mol]
      Exch-Disp20                   0.09032483 [mEh]       0.05667969 [kcal/mol]       0.23714781 [kJ/mol]

  Total HF                         -2.04312171 [mEh]      -1.28207823 [kcal/mol]      -5.36421530 [kJ/mol]
  Total SAPT0                      -4.42063429 [mEh]      -2.77398990 [kcal/mol]     -11.60637373 [kJ/mol]
  Total SAPT2                      -4.06292891 [mEh]      -2.54952639 [kcal/mol]     -10.66721840 [kJ/mol]
  Total SAPT2+                     -4.01839673 [mEh]      -2.52158202 [kcal/mol]     -10.55029916 [kJ/mol]

  Special recipe for scaled SAPT0 (see Manual):
    Electrostatics sSAPT0          -2.22879281 [mEh]      -1.39858860 [kcal/mol]      -5.85169471 [kJ/mol]
    Exchange sSAPT0                 0.55456107 [mEh]       0.34799233 [kcal/mol]       1.45599989 [kJ/mol]
    Induction sSAPT0               -0.36885426 [mEh]      -0.23145954 [kcal/mol]      -0.96842673 [kJ/mol]
    Dispersion sSAPT0              -2.37748268 [mEh]      -1.49189291 [kcal/mol]      -6.24207992 [kJ/mol]
  Total sSAPT0                     -4.42056868 [mEh]      -2.77394873 [kcal/mol]     -11.60620148 [kJ/mol]
  --------------------------------------------------------------------------------------------------------

*** Psi4 exiting successfully. Buy a developer a beer!
