                               Psi4 1.4a2.dev224

  ==> Input File <==

--------------------------------------------------------------------------
#Generated by lconvert.py for sapt job

memory 50 GB

molecule  {
0 1
  C       0.759750    1.031270    0.373770
  H       1.435020    1.875660    0.374710
  C       1.266620   -0.267360    0.421270
  H       2.334920   -0.429180    0.459430
  C       0.395320   -1.355990    0.424900
  H       0.788660   -2.362490    0.463030
  C      -0.982210   -1.146650    0.381270
  H      -1.657660   -1.991140    0.385120
  C      -1.489350    0.151150    0.337570
  H      -2.557950    0.313750    0.307720
  C      -0.618770    1.240330    0.333880
  H      -1.011760    2.247110    0.304370
--
0 1
  O      -0.155040    0.193480    6.134070
  H      -0.068940    0.243350    5.176870
  C      -1.051190   -0.864130    6.417120
  H      -1.146910   -0.920870    7.498060
  H      -2.043340   -0.692440    5.993330
  H      -0.684730   -1.827180    6.054210
units angstrom
no_reorient
symmetry c1
}

set {
scf_type DF
basis aug-cc-pvtz
freeze_core True
guess SAD
}
energy('sapt2+')
--------------------------------------------------------------------------

  //              Dimer HF             //
    Molecular point group: c1
  Charge       = 0
  Multiplicity = 1
  Basis Set: AUG-CC-PVTZ
    Blend: AUG-CC-PVTZ
  Basis Set: (AUG-CC-PVTZ AUX)
    Blend: AUG-CC-PVTZ-JKFIT
  @DF-RHF Final Energy:  -345.87398463264930
    Total Energy =                       -345.8739846326492966
  //            Monomer A HF           //
    Molecular point group: c1
  Multiplicity = 1
  Basis Set: AUG-CC-PVTZ
    Blend: AUG-CC-PVTZ
  Basis Set: (AUG-CC-PVTZ AUX)
    Blend: AUG-CC-PVTZ-JKFIT
  @DF-RHF Final Energy:  -230.78121132705456
    Total Energy =                       -230.7812113270545638
  //            Monomer B HF           //
    Molecular point group: c1

    Geometry (in Angstrom), charge = 0, multiplicity = 1:

       Center              X                  Y                   Z               Mass
    ------------   -----------------  -----------------  -----------------  -----------------
      Gh(C)           1.012005815713     1.167661293748    -1.712292881573    12.000000000000
      Gh(H)           1.687275815713     2.012051293748    -1.711352881573     1.007825032230
      Gh(C)           1.518875815713    -0.130968706252    -1.664792881573    12.000000000000
      Gh(H)           2.587175815713    -0.292788706252    -1.626632881573     1.007825032230
      Gh(C)           0.647575815713    -1.219598706252    -1.661162881573    12.000000000000
      Gh(H)           1.040915815713    -2.226098706252    -1.623032881573     1.007825032230
      Gh(C)          -0.729954184287    -1.010258706252    -1.704792881573    12.000000000000
      Gh(H)          -1.405404184287    -1.854748706252    -1.700942881573     1.007825032230
      Gh(C)          -1.237094184287     0.287541293748    -1.748492881573    12.000000000000
      Gh(H)          -2.305694184287     0.450141293748    -1.778342881573     1.007825032230
      Gh(C)          -0.366514184287     1.376721293748    -1.752182881573    12.000000000000
      Gh(H)          -0.759504184287     2.383501293748    -1.781692881573     1.007825032230
         O            0.097215815713     0.329871293748     4.048007118427    15.994914619570
         H            0.183315815713     0.379741293748     3.090807118427     1.007825032230
         C           -0.798934184287    -0.727738706252     4.331057118427    12.000000000000
         H           -0.894654184287    -0.784478706252     5.411997118427     1.007825032230
         H           -1.791084184287    -0.556048706252     3.907267118427     1.007825032230
         H           -0.432474184287    -1.690788706252     3.968147118427     1.007825032230

  Charge       = 0
  Multiplicity = 1
  Basis Set: AUG-CC-PVTZ
    Blend: AUG-CC-PVTZ
  Basis Set: (AUG-CC-PVTZ AUX)
    Blend: AUG-CC-PVTZ-JKFIT

    Orbital Energies [Eh]
    ---------------------

    Doubly Occupied:

       1A    -20.560355     2A    -11.270442     3A     -1.360241
       4A     -0.925496     5A     -0.692760     6A     -0.620849
       7A     -0.594740     8A     -0.505091     9A     -0.451375

  @DF-RHF Final Energy:  -115.09201868171807

   => Energetics <=

    Nuclear Repulsion Energy =             40.4152182195360155
    One-Electron Energy =                -237.0517725561589941
    Two-Electron Energy =                  81.5445356549048910
    Total Energy =                       -115.0920186817180735

  Dipole Moment: [D]
     X:    -0.8310      Y:    -1.0626      Z:    -1.2048     Total:     1.8087

    SAPT Results
  --------------------------------------------------------------------------------------------------------
    Electrostatics                 -0.61044525 [mEh]      -0.38306018 [kcal/mol]      -1.60272378 [kJ/mol]
      Elst10,r                     -0.72103247 [mEh]      -0.45245471 [kcal/mol]      -1.89307049 [kJ/mol]
      Elst12,r                      0.11058722 [mEh]       0.06939453 [kcal/mol]       0.29034670 [kJ/mol]

    Exchange                        0.00247243 [mEh]       0.00155147 [kcal/mol]       0.00649135 [kJ/mol]
      Exch10                        0.00205375 [mEh]       0.00128875 [kcal/mol]       0.00539211 [kJ/mol]
      Exch10(S^2)                   0.00205375 [mEh]       0.00128875 [kcal/mol]       0.00539211 [kJ/mol]
      Exch11(S^2)                   0.00002804 [mEh]       0.00001760 [kcal/mol]       0.00007362 [kJ/mol]
      Exch12(S^2)                   0.00039064 [mEh]       0.00024513 [kcal/mol]       0.00102562 [kJ/mol]

    Induction                      -0.03267244 [mEh]      -0.02050226 [kcal/mol]      -0.08578147 [kJ/mol]
      Ind20,r                      -0.03493027 [mEh]      -0.02191907 [kcal/mol]      -0.09170941 [kJ/mol]
      Ind22                         0.00300598 [mEh]       0.00188628 [kcal/mol]       0.00789219 [kJ/mol]
      Exch-Ind20,r                  0.00038651 [mEh]       0.00024254 [kcal/mol]       0.00101479 [kJ/mol]
      Exch-Ind22                   -0.00003326 [mEh]      -0.00002087 [kcal/mol]      -0.00008733 [kJ/mol]
      delta HF,r (2)               -0.00110140 [mEh]      -0.00069114 [kcal/mol]      -0.00289171 [kJ/mol]

    Dispersion                     -0.30403395 [mEh]      -0.19078418 [kcal/mol]      -0.79824103 [kJ/mol]
      Disp20                       -0.32294988 [mEh]      -0.20265411 [kcal/mol]      -0.84790479 [kJ/mol]
      Disp21                        0.07356774 [mEh]       0.04616445 [kcal/mol]       0.19315208 [kJ/mol]
      Disp22 (SDQ)                  0.01240140 [mEh]       0.00778199 [kcal/mol]       0.03255987 [kJ/mol]
      Disp22 (T)                   -0.06586583 [mEh]      -0.04133144 [kcal/mol]      -0.17293072 [kJ/mol]
      Est. Disp22 (T)              -0.06763221 [mEh]      -0.04243985 [kcal/mol]      -0.17756835 [kJ/mol]
      Exch-Disp20                   0.00057900 [mEh]       0.00036333 [kcal/mol]       0.00152017 [kJ/mol]

  Total HF                         -0.75462388 [mEh]      -0.47353363 [kcal/mol]      -1.98126472 [kJ/mol]
  Total SAPT0                      -1.07699475 [mEh]      -0.67582441 [kcal/mol]      -2.82764934 [kJ/mol]
  Total SAPT2                      -0.96301614 [mEh]      -0.60430175 [kcal/mol]      -2.52839853 [kJ/mol]
  Total SAPT2+                     -0.94467921 [mEh]      -0.59279516 [kcal/mol]      -2.48025493 [kJ/mol]

  Special recipe for scaled SAPT0 (see Manual):
    Electrostatics sSAPT0          -0.72103247 [mEh]      -0.45245471 [kcal/mol]      -1.89307049 [kJ/mol]
    Exchange sSAPT0                 0.00205375 [mEh]       0.00128875 [kcal/mol]       0.00539211 [kJ/mol]
    Induction sSAPT0               -0.03564515 [mEh]      -0.02236767 [kcal/mol]      -0.09358634 [kJ/mol]
    Dispersion sSAPT0              -0.32237088 [mEh]      -0.20229078 [kcal/mol]      -0.84638462 [kJ/mol]
  Total sSAPT0                     -1.07699475 [mEh]      -0.67582441 [kcal/mol]      -2.82764934 [kJ/mol]
  --------------------------------------------------------------------------------------------------------

*** Psi4 exiting successfully. Buy a developer a beer!
