                               Psi4 1.4a2.dev224

  ==> Input File <==

--------------------------------------------------------------------------
#Generated by lconvert.py for sapt job

memory 50 GB

molecule  {
0 1
  C       0.692320    1.088290    0.324840
  H       1.281950    1.991950    0.252520
  C       1.318190   -0.156870    0.286900
  H       2.393140   -0.219480    0.188410
  C       0.558020   -1.321950    0.381400
  H       1.043920   -2.287570    0.357620
  C      -0.827550   -1.241420    0.511680
  H      -1.416700   -2.145250    0.585340
  C      -1.453410    0.003670    0.548380
  H      -2.528230    0.065700    0.649840
  C      -0.693460    1.168400    0.456230
  H      -1.178740    2.134410    0.485730
--
0 1
  N       0.188500   -0.302830    4.740580
  H       0.323120   -0.258780    3.737510
  H       0.329990    0.642320    5.073050
  C      -1.187600   -0.709210    5.018010
  H      -1.345470   -0.737760    6.094570
  H      -1.958900   -0.068830    4.577890
  H      -1.342290   -1.718780    4.642390
units angstrom
no_reorient
symmetry c1
}

set {
scf_type DF
basis aug-cc-pvtz
freeze_core True
guess SAD
}
energy('sapt2+')
--------------------------------------------------------------------------

  //              Dimer HF             //
    Molecular point group: c1
  Charge       = 0
  Multiplicity = 1
  Basis Set: AUG-CC-PVTZ
    Blend: AUG-CC-PVTZ
  Basis Set: (AUG-CC-PVTZ AUX)
    Blend: AUG-CC-PVTZ-JKFIT
  @DF-RHF Final Energy:  -326.03763172657852
    Total Energy =                       -326.0376317265785246
  //            Monomer A HF           //
    Molecular point group: c1
  Multiplicity = 1
  Basis Set: AUG-CC-PVTZ
    Blend: AUG-CC-PVTZ
  Basis Set: (AUG-CC-PVTZ AUX)
    Blend: AUG-CC-PVTZ-JKFIT
  @DF-RHF Final Energy:  -230.78132156664395
    Total Energy =                       -230.7813215666439532
  //            Monomer B HF           //
    Molecular point group: c1

    Geometry (in Angstrom), charge = 0, multiplicity = 1:

       Center              X                  Y                   Z               Mass
    ------------   -----------------  -----------------  -----------------  -----------------
      Gh(C)           0.884043253945     1.279803659288    -1.357869422606    12.000000000000
      Gh(H)           1.473673253945     2.183463659288    -1.430189422606     1.007825032230
      Gh(C)           1.509913253945     0.034643659288    -1.395809422606    12.000000000000
      Gh(H)           2.584863253945    -0.027966340712    -1.494299422606     1.007825032230
      Gh(C)           0.749743253945    -1.130436340712    -1.301309422606    12.000000000000
      Gh(H)           1.235643253945    -2.096056340712    -1.325089422606     1.007825032230
      Gh(C)          -0.635826746055    -1.049906340712    -1.171029422606    12.000000000000
      Gh(H)          -1.224976746055    -1.953736340712    -1.097369422606     1.007825032230
      Gh(C)          -1.261686746055     0.195183659288    -1.134329422606    12.000000000000
      Gh(H)          -2.336506746055     0.257213659288    -1.032869422606     1.007825032230
      Gh(C)          -0.501736746055     1.359913659288    -1.226479422606    12.000000000000
      Gh(H)          -0.987016746055     2.325923659288    -1.196979422606     1.007825032230
         N            0.380223253945    -0.111316340712     3.057870577394    14.003074004430
         H            0.514843253945    -0.067266340712     2.054800577394     1.007825032230
         H            0.521713253945     0.833833659288     3.390340577394     1.007825032230
         C           -0.995876746055    -0.517696340712     3.335300577394    12.000000000000
         H           -1.153746746055    -0.546246340712     4.411860577394     1.007825032230
         H           -1.767176746055     0.122683659288     2.895180577394     1.007825032230
         H           -1.150566746055    -1.527266340712     2.959680577394     1.007825032230

  Charge       = 0
  Multiplicity = 1
  Basis Set: AUG-CC-PVTZ
    Blend: AUG-CC-PVTZ
  Basis Set: (AUG-CC-PVTZ AUX)
    Blend: AUG-CC-PVTZ-JKFIT

    Orbital Energies [Eh]
    ---------------------

    Doubly Occupied:

       1A    -15.540552     2A    -11.240358     3A     -1.172281
       4A     -0.895834     5A     -0.662083     6A     -0.604813
       7A     -0.555411     8A     -0.516185     9A     -0.394514

  @DF-RHF Final Energy:   -95.25536907499136

   => Energetics <=

    Nuclear Repulsion Energy =             42.1072661412237252
    One-Electron Energy =                -211.5612070556403523
    Two-Electron Energy =                  74.1985718394252558
    Total Energy =                        -95.2553690749913642

  Dipole Moment: [D]
     X:    -0.9050      Y:     0.9520      Z:    -0.6418     Total:     1.4619

    SAPT Results
  --------------------------------------------------------------------------------------------------------
    Electrostatics                 -1.05689677 [mEh]      -0.66321273 [kcal/mol]      -2.77488208 [kJ/mol]
      Elst10,r                     -1.18464924 [mEh]      -0.74337862 [kcal/mol]      -3.11029615 [kJ/mol]
      Elst12,r                      0.12775247 [mEh]       0.08016589 [kcal/mol]       0.33541407 [kJ/mol]

    Exchange                        0.46728750 [mEh]       0.29322733 [kcal/mol]       1.22686315 [kJ/mol]
      Exch10                        0.41575970 [mEh]       0.26089315 [kcal/mol]       1.09157694 [kJ/mol]
      Exch10(S^2)                   0.41571202 [mEh]       0.26086323 [kcal/mol]       1.09145176 [kJ/mol]
      Exch11(S^2)                   0.01314845 [mEh]       0.00825078 [kcal/mol]       0.03452126 [kJ/mol]
      Exch12(S^2)                   0.03837934 [mEh]       0.02408340 [kcal/mol]       0.10076495 [kJ/mol]

    Induction                      -0.17653095 [mEh]      -0.11077484 [kcal/mol]      -0.46348193 [kJ/mol]
      Ind20,r                      -0.20852551 [mEh]      -0.13085173 [kcal/mol]      -0.54748365 [kJ/mol]
      Ind22                        -0.00714377 [mEh]      -0.00448278 [kcal/mol]      -0.01875596 [kJ/mol]
      Exch-Ind20,r                  0.08197168 [mEh]       0.05143800 [kcal/mol]       0.21521661 [kJ/mol]
      Exch-Ind22                    0.00280823 [mEh]       0.00176219 [kcal/mol]       0.00737299 [kJ/mol]
      delta HF,r (2)               -0.04564157 [mEh]      -0.02864052 [kcal/mol]      -0.11983193 [kJ/mol]

    Dispersion                     -2.12790028 [mEh]      -1.33527758 [kcal/mol]      -5.58680141 [kJ/mol]
      Disp20                       -2.32343551 [mEh]      -1.45797779 [kcal/mol]      -6.10017908 [kJ/mol]
      Disp21                        0.44806855 [mEh]       0.28116726 [kcal/mol]       1.17640381 [kJ/mol]
      Disp22 (SDQ)                  0.12807043 [mEh]       0.08036541 [kcal/mol]       0.33624888 [kJ/mol]
      Disp22 (T)                   -0.43326919 [mEh]      -0.27188052 [kcal/mol]      -1.13754811 [kJ/mol]
      Est. Disp22 (T)              -0.46403373 [mEh]      -0.29118556 [kcal/mol]      -1.21832038 [kJ/mol]
      Exch-Disp20                   0.08342997 [mEh]       0.05235310 [kcal/mol]       0.21904536 [kJ/mol]

  Total HF                         -0.94108494 [mEh]      -0.59053972 [kcal/mol]      -2.47081818 [kJ/mol]
  Total SAPT0                      -3.18109048 [mEh]      -1.99616441 [kcal/mol]      -8.35195190 [kJ/mol]
  Total SAPT2                      -3.00614575 [mEh]      -1.88638494 [kcal/mol]      -7.89263459 [kJ/mol]
  Total SAPT2+                     -2.89404050 [mEh]      -1.81603783 [kcal/mol]      -7.59830227 [kJ/mol]

  Special recipe for scaled SAPT0 (see Manual):
    Electrostatics sSAPT0          -1.18464924 [mEh]      -0.74337862 [kcal/mol]      -3.11029615 [kJ/mol]
    Exchange sSAPT0                 0.41575970 [mEh]       0.26089315 [kcal/mol]       1.09157694 [kJ/mol]
    Induction sSAPT0               -0.17216720 [mEh]      -0.10803655 [kcal/mol]      -0.45202491 [kJ/mol]
    Dispersion sSAPT0              -2.23997683 [mEh]      -1.40560668 [kcal/mol]      -5.88105835 [kJ/mol]
  Total sSAPT0                     -3.18103356 [mEh]      -1.99612870 [kcal/mol]      -8.35180247 [kJ/mol]
  --------------------------------------------------------------------------------------------------------

*** Psi4 exiting successfully. Buy a developer a beer!
