                               Psi4 1.4a2.dev224

  ==> Input File <==

--------------------------------------------------------------------------
#Generated by lconvert.py for sapt job

memory 50 GB

molecule  {
0 1
  C       0.692320    1.088290    0.324840
  H       1.281950    1.991950    0.252520
  C       1.318190   -0.156870    0.286900
  H       2.393140   -0.219480    0.188410
  C       0.558020   -1.321950    0.381400
  H       1.043920   -2.287570    0.357620
  C      -0.827550   -1.241420    0.511680
  H      -1.416700   -2.145250    0.585340
  C      -1.453410    0.003670    0.548380
  H      -2.528230    0.065700    0.649840
  C      -0.693460    1.168400    0.456230
  H      -1.178740    2.134410    0.485730
--
0 1
  N       0.103880   -0.381140    5.602480
  H       0.238500   -0.337100    4.599410
  H       0.245370    0.564010    5.934950
  C      -1.272220   -0.787520    5.879920
  H      -1.430090   -0.816070    6.956470
  H      -2.043520   -0.147140    5.439800
  H      -1.426910   -1.797090    5.504290
units angstrom
no_reorient
symmetry c1
}

set {
scf_type DF
basis aug-cc-pvtz
freeze_core True
guess SAD
}
energy('sapt2+')
--------------------------------------------------------------------------

  //              Dimer HF             //
    Molecular point group: c1
  Charge       = 0
  Multiplicity = 1
  Basis Set: AUG-CC-PVTZ
    Blend: AUG-CC-PVTZ
  Basis Set: (AUG-CC-PVTZ AUX)
    Blend: AUG-CC-PVTZ-JKFIT
  @DF-RHF Final Energy:  -326.03724998868972
    Total Energy =                       -326.0372499886897231
  //            Monomer A HF           //
    Molecular point group: c1
  Multiplicity = 1
  Basis Set: AUG-CC-PVTZ
    Blend: AUG-CC-PVTZ
  Basis Set: (AUG-CC-PVTZ AUX)
    Blend: AUG-CC-PVTZ-JKFIT
  @DF-RHF Final Energy:  -230.78126814843310
    Total Energy =                       -230.7812681484331279
  //            Monomer B HF           //
    Molecular point group: c1

    Geometry (in Angstrom), charge = 0, multiplicity = 1:

       Center              X                  Y                   Z               Mass
    ------------   -----------------  -----------------  -----------------  -----------------
      Gh(C)           0.908122558888     1.302087495116    -1.603131226336    12.000000000000
      Gh(H)           1.497752558888     2.205747495116    -1.675451226336     1.007825032230
      Gh(C)           1.533992558888     0.056927495116    -1.641071226336    12.000000000000
      Gh(H)           2.608942558888    -0.005682504884    -1.739561226336     1.007825032230
      Gh(C)           0.773822558888    -1.108152504884    -1.546571226336    12.000000000000
      Gh(H)           1.259722558888    -2.073772504884    -1.570351226336     1.007825032230
      Gh(C)          -0.611747441112    -1.027622504884    -1.416291226336    12.000000000000
      Gh(H)          -1.200897441112    -1.931452504884    -1.342631226336     1.007825032230
      Gh(C)          -1.237607441112     0.217467495116    -1.379591226336    12.000000000000
      Gh(H)          -2.312427441112     0.279497495116    -1.278131226336     1.007825032230
      Gh(C)          -0.477657441112     1.382197495116    -1.471741226336    12.000000000000
      Gh(H)          -0.962937441112     2.348207495116    -1.442241226336     1.007825032230
         N            0.319682558888    -0.167342504884     3.674508773664    14.003074004430
         H            0.454302558888    -0.123302504884     2.671438773664     1.007825032230
         H            0.461172558888     0.777807495116     4.006978773664     1.007825032230
         C           -1.056417441112    -0.573722504884     3.951948773664    12.000000000000
         H           -1.214287441112    -0.602272504884     5.028498773664     1.007825032230
         H           -1.827717441112     0.066657495116     3.511828773664     1.007825032230
         H           -1.211107441112    -1.583292504884     3.576318773664     1.007825032230

  Charge       = 0
  Multiplicity = 1
  Basis Set: AUG-CC-PVTZ
    Blend: AUG-CC-PVTZ
  Basis Set: (AUG-CC-PVTZ AUX)
    Blend: AUG-CC-PVTZ-JKFIT

    Orbital Energies [Eh]
    ---------------------

    Doubly Occupied:

       1A    -15.540549     2A    -11.240354     3A     -1.172280
       4A     -0.895835     5A     -0.662084     6A     -0.604812
       7A     -0.555409     8A     -0.516187     9A     -0.394513

  @DF-RHF Final Energy:   -95.25535511792114

   => Energetics <=

    Nuclear Repulsion Energy =             42.1072637075670144
    One-Electron Energy =                -211.5611897171245914
    Two-Electron Energy =                  74.1985708916364217
    Total Energy =                        -95.2553551179211411

  Dipole Moment: [D]
     X:    -0.9049      Y:     0.9520      Z:    -0.6418     Total:     1.4619

    SAPT Results
  --------------------------------------------------------------------------------------------------------
    Electrostatics                 -0.52022188 [mEh]      -0.32644416 [kcal/mol]      -1.36584235 [kJ/mol]
      Elst10,r                     -0.60651515 [mEh]      -0.38059401 [kcal/mol]      -1.59240532 [kJ/mol]
      Elst12,r                      0.08629328 [mEh]       0.05414985 [kcal/mol]       0.22656297 [kJ/mol]

    Exchange                        0.02864601 [mEh]       0.01797564 [kcal/mol]       0.07521008 [kJ/mol]
      Exch10                        0.02431021 [mEh]       0.01525489 [kcal/mol]       0.06382646 [kJ/mol]
      Exch10(S^2)                   0.02431013 [mEh]       0.01525484 [kcal/mol]       0.06382625 [kJ/mol]
      Exch11(S^2)                   0.00049250 [mEh]       0.00030905 [kcal/mol]       0.00129307 [kJ/mol]
      Exch12(S^2)                   0.00384329 [mEh]       0.00241170 [kcal/mol]       0.01009055 [kJ/mol]

    Induction                      -0.04355913 [mEh]      -0.02733377 [kcal/mol]      -0.11436449 [kJ/mol]
      Ind20,r                      -0.04581980 [mEh]      -0.02875236 [kcal/mol]      -0.12029986 [kJ/mol]
      Ind22                         0.00106738 [mEh]       0.00066979 [kcal/mol]       0.00280239 [kJ/mol]
      Exch-Ind20,r                  0.00468401 [mEh]       0.00293926 [kcal/mol]       0.01229786 [kJ/mol]
      Exch-Ind22                   -0.00010911 [mEh]      -0.00006847 [kcal/mol]      -0.00028648 [kJ/mol]
      delta HF,r (2)               -0.00338161 [mEh]      -0.00212199 [kcal/mol]      -0.00887840 [kJ/mol]

    Dispersion                     -0.69669336 [mEh]      -0.43718169 [kcal/mol]      -1.82916818 [kJ/mol]
      Disp20                       -0.75489834 [mEh]      -0.47370586 [kcal/mol]      -1.98198531 [kJ/mol]
      Disp21                        0.16440099 [mEh]       0.10316318 [kcal/mol]       0.43163473 [kJ/mol]
      Disp22 (SDQ)                  0.04018147 [mEh]       0.02521426 [kcal/mol]       0.10549645 [kJ/mol]
      Disp22 (T)                   -0.14614445 [mEh]      -0.09170703 [kcal/mol]      -0.38370220 [kJ/mol]
      Est. Disp22 (T)              -0.15311556 [mEh]      -0.09608146 [kcal/mol]      -0.40200484 [kJ/mol]
      Exch-Disp20                   0.00673807 [mEh]       0.00422820 [kcal/mol]       0.01769079 [kJ/mol]

  Total HF                         -0.62672234 [mEh]      -0.39327420 [kcal/mol]      -1.64545927 [kJ/mol]
  Total SAPT0                      -1.37488261 [mEh]      -0.86275186 [kcal/mol]      -3.60975378 [kJ/mol]
  Total SAPT2                      -1.28329528 [mEh]      -0.80527994 [kcal/mol]      -3.36929128 [kJ/mol]
  Total SAPT2+                     -1.23182837 [mEh]      -0.77298397 [kcal/mol]      -3.23416494 [kJ/mol]

  Special recipe for scaled SAPT0 (see Manual):
    Electrostatics sSAPT0          -0.60651515 [mEh]      -0.38059401 [kcal/mol]      -1.59240532 [kJ/mol]
    Exchange sSAPT0                 0.02431021 [mEh]       0.01525489 [kcal/mol]       0.06382646 [kJ/mol]
    Induction sSAPT0               -0.04451735 [mEh]      -0.02793506 [kcal/mol]      -0.11688028 [kJ/mol]
    Dispersion sSAPT0              -0.74816020 [mEh]      -0.46947762 [kcal/mol]      -1.96429434 [kJ/mol]
  Total sSAPT0                     -1.37488249 [mEh]      -0.86275179 [kcal/mol]      -3.60975348 [kJ/mol]
  --------------------------------------------------------------------------------------------------------

*** Psi4 exiting successfully. Buy a developer a beer!
