                               Psi4 1.4a2.dev224

  ==> Input File <==

--------------------------------------------------------------------------
#Generated by lconvert.py for sapt job

memory 50 GB

molecule  {
0 1
  C       0.692320    1.088290    0.324840
  H       1.281950    1.991950    0.252520
  C       1.318190   -0.156870    0.286900
  H       2.393140   -0.219480    0.188410
  C       0.558020   -1.321950    0.381400
  H       1.043920   -2.287570    0.357620
  C      -0.827550   -1.241420    0.511680
  H      -1.416700   -2.145250    0.585340
  C      -1.453410    0.003670    0.548380
  H      -2.528230    0.065700    0.649840
  C      -0.693460    1.168400    0.456230
  H      -1.178740    2.134410    0.485730
--
0 1
  N       0.019260   -0.459450    6.464380
  H       0.153880   -0.415410    5.461310
  H       0.160750    0.485700    6.796860
  C      -1.356840   -0.865830    6.741820
  H      -1.514720   -0.894380    7.818380
  H      -2.128140   -0.225450    6.301700
  H      -1.511530   -1.875400    6.366200
units angstrom
no_reorient
symmetry c1
}

set {
scf_type DF
basis aug-cc-pvtz
freeze_core True
guess SAD
}
energy('sapt2+')
--------------------------------------------------------------------------

  //              Dimer HF             //
    Molecular point group: c1
  Charge       = 0
  Multiplicity = 1
  Basis Set: AUG-CC-PVTZ
    Blend: AUG-CC-PVTZ
  Basis Set: (AUG-CC-PVTZ AUX)
    Blend: AUG-CC-PVTZ-JKFIT
  @DF-RHF Final Energy:  -326.03696005853448
    Total Energy =                       -326.0369600585344756
  //            Monomer A HF           //
    Molecular point group: c1
  Multiplicity = 1
  Basis Set: AUG-CC-PVTZ
    Blend: AUG-CC-PVTZ
  Basis Set: (AUG-CC-PVTZ AUX)
    Blend: AUG-CC-PVTZ-JKFIT
  @DF-RHF Final Energy:  -230.78125130930940
    Total Energy =                       -230.7812513093094253
  //            Monomer B HF           //
    Molecular point group: c1

    Geometry (in Angstrom), charge = 0, multiplicity = 1:

       Center              X                  Y                   Z               Mass
    ------------   -----------------  -----------------  -----------------  -----------------
      Gh(C)           0.932201956216     1.324371238558    -1.848392114818    12.000000000000
      Gh(H)           1.521831956216     2.228031238558    -1.920712114818     1.007825032230
      Gh(C)           1.558071956216     0.079211238558    -1.886332114818    12.000000000000
      Gh(H)           2.633021956216     0.016601238558    -1.984822114818     1.007825032230
      Gh(C)           0.797901956216    -1.085868761442    -1.791832114818    12.000000000000
      Gh(H)           1.283801956216    -2.051488761442    -1.815612114818     1.007825032230
      Gh(C)          -0.587668043784    -1.005338761442    -1.661552114818    12.000000000000
      Gh(H)          -1.176818043784    -1.909168761442    -1.587892114818     1.007825032230
      Gh(C)          -1.213528043784     0.239751238558    -1.624852114818    12.000000000000
      Gh(H)          -2.288348043784     0.301781238558    -1.523392114818     1.007825032230
      Gh(C)          -0.453578043784     1.404481238558    -1.717002114818    12.000000000000
      Gh(H)          -0.938858043784     2.370491238558    -1.687502114818     1.007825032230
         N            0.259141956216    -0.223368761442     4.291147885182    14.003074004430
         H            0.393761956216    -0.179328761442     3.288077885182     1.007825032230
         H            0.400631956216     0.721781238558     4.623627885182     1.007825032230
         C           -1.116958043784    -0.629748761442     4.568587885182    12.000000000000
         H           -1.274838043784    -0.658298761442     5.645147885182     1.007825032230
         H           -1.888258043784     0.010631238558     4.128467885182     1.007825032230
         H           -1.271648043784    -1.639318761442     4.192967885182     1.007825032230

  Charge       = 0
  Multiplicity = 1
  Basis Set: AUG-CC-PVTZ
    Blend: AUG-CC-PVTZ
  Basis Set: (AUG-CC-PVTZ AUX)
    Blend: AUG-CC-PVTZ-JKFIT

    Orbital Energies [Eh]
    ---------------------

    Doubly Occupied:

       1A    -15.540548     2A    -11.240350     3A     -1.172279
       4A     -0.895834     5A     -0.662083     6A     -0.604812
       7A     -0.555409     8A     -0.516185     9A     -0.394513

  @DF-RHF Final Energy:   -95.25534822293156

   => Energetics <=

    Nuclear Repulsion Energy =             42.1072145422692685
    One-Electron Energy =                -211.5610999558732033
    Two-Electron Energy =                  74.1985371906723685
    Total Energy =                        -95.2553482229315591

  Dipole Moment: [D]
     X:    -0.9049      Y:     0.9520      Z:    -0.6418     Total:     1.4618

    SAPT Results
  --------------------------------------------------------------------------------------------------------
    Electrostatics                 -0.29512739 [mEh]      -0.18519523 [kcal/mol]      -0.77485686 [kJ/mol]
      Elst10,r                     -0.34602316 [mEh]      -0.21713281 [kcal/mol]      -0.90848369 [kJ/mol]
      Elst12,r                      0.05089577 [mEh]       0.03193758 [kcal/mol]       0.13362683 [kJ/mol]

    Exchange                        0.00169565 [mEh]       0.00106404 [kcal/mol]       0.00445192 [kJ/mol]
      Exch10                        0.00139102 [mEh]       0.00087288 [kcal/mol]       0.00365213 [kJ/mol]
      Exch10(S^2)                   0.00139102 [mEh]       0.00087288 [kcal/mol]       0.00365213 [kJ/mol]
      Exch11(S^2)                   0.00001136 [mEh]       0.00000713 [kcal/mol]       0.00002984 [kJ/mol]
      Exch12(S^2)                   0.00029326 [mEh]       0.00018402 [kcal/mol]       0.00076995 [kJ/mol]

    Induction                      -0.01521309 [mEh]      -0.00954636 [kcal/mol]      -0.03994195 [kJ/mol]
      Ind20,r                      -0.01560048 [mEh]      -0.00978945 [kcal/mol]      -0.04095906 [kJ/mol]
      Ind22                         0.00069496 [mEh]       0.00043609 [kcal/mol]       0.00182461 [kJ/mol]
      Exch-Ind20,r                  0.00031177 [mEh]       0.00019564 [kcal/mol]       0.00081854 [kJ/mol]
      Exch-Ind22                   -0.00001389 [mEh]      -0.00000872 [kcal/mol]      -0.00003646 [kJ/mol]
      delta HF,r (2)               -0.00060544 [mEh]      -0.00037992 [kcal/mol]      -0.00158958 [kJ/mol]

    Dispersion                     -0.26884819 [mEh]      -0.16870478 [kcal/mol]      -0.70586081 [kJ/mol]
      Disp20                       -0.29393810 [mEh]      -0.18444894 [kcal/mol]      -0.77173437 [kJ/mol]
      Disp21                        0.06949191 [mEh]       0.04360683 [kcal/mol]       0.18245098 [kJ/mol]
      Disp22 (SDQ)                  0.01507231 [mEh]       0.00945802 [kcal/mol]       0.03957235 [kJ/mol]
      Disp22 (T)                   -0.05828102 [mEh]      -0.03657189 [kcal/mol]      -0.15301679 [kJ/mol]
      Est. Disp22 (T)              -0.05997966 [mEh]      -0.03763780 [kcal/mol]      -0.15747657 [kJ/mol]
      Exch-Disp20                   0.00050535 [mEh]       0.00031711 [kcal/mol]       0.00132680 [kJ/mol]

  Total HF                         -0.36052629 [mEh]      -0.22623366 [kcal/mol]      -0.94656165 [kJ/mol]
  Total SAPT0                      -0.65395904 [mEh]      -0.41036549 [kcal/mol]      -1.71696923 [kJ/mol]
  Total SAPT2                      -0.60207758 [mEh]      -0.37780938 [kcal/mol]      -1.58075447 [kJ/mol]
  Total SAPT2+                     -0.57749302 [mEh]      -0.36238234 [kcal/mol]      -1.51620770 [kJ/mol]

  Special recipe for scaled SAPT0 (see Manual):
    Electrostatics sSAPT0          -0.34602316 [mEh]      -0.21713281 [kcal/mol]      -0.90848369 [kJ/mol]
    Exchange sSAPT0                 0.00139102 [mEh]       0.00087288 [kcal/mol]       0.00365213 [kJ/mol]
    Induction sSAPT0               -0.01589415 [mEh]      -0.00997373 [kcal/mol]      -0.04173010 [kJ/mol]
    Dispersion sSAPT0              -0.29343275 [mEh]      -0.18413183 [kcal/mol]      -0.77040758 [kJ/mol]
  Total sSAPT0                     -0.65395904 [mEh]      -0.41036549 [kcal/mol]      -1.71696923 [kJ/mol]
  --------------------------------------------------------------------------------------------------------

*** Psi4 exiting successfully. Buy a developer a beer!
