                               Psi4 1.4a2.dev224

  ==> Input File <==

--------------------------------------------------------------------------
#Generated by lconvert.py for sapt job

memory 25 GB

molecule  {
0 1
  C       0.408780    1.051030    0.375540
  H       1.011940    1.948550    0.368080
  C       1.019170   -0.199770    0.289050
  H       2.095570   -0.271830    0.217190
  C       0.241720   -1.356880    0.296690
  H       0.715220   -2.326590    0.228070
  C      -1.146180   -1.264260    0.393900
  H      -1.749180   -2.161930    0.399410
  C      -1.757280   -0.013960    0.482950
  H      -2.833510    0.058240    0.559040
  C      -0.979690    1.144210    0.472280
  H      -1.454050    2.114000    0.537140
--
0 1
  C       0.285460    2.049170    6.404660
  H      -0.072690    2.214900    5.391370
  H       1.310040    2.405880    6.486100
  H      -0.318640    2.622800    7.103010
  C       0.248610    0.596000    6.820370
  O       0.533240    0.243640    7.958910
  N      -0.123790   -0.269710    5.841130
  H      -0.284910    0.088280    4.915060
  C      -0.160580   -1.696590    6.059220
  H      -0.082490   -1.863500    7.129210
  H      -1.095820   -2.114940    5.692480
  H       0.668550   -2.200470    5.561880
units angstrom
no_reorient
symmetry c1
}

set {
scf_type DF
basis aug-cc-pvtz
freeze_core True
guess SAD
}
energy('sapt2+')
--------------------------------------------------------------------------

  //              Dimer HF             //
    Molecular point group: c1
  Charge       = 0
  Multiplicity = 1
  Basis Set: AUG-CC-PVTZ
    Blend: AUG-CC-PVTZ
  Basis Set: (AUG-CC-PVTZ AUX)
    Blend: AUG-CC-PVTZ-JKFIT
  @DF-RHF Final Energy:  -477.88506914203822
    Total Energy =                       -477.8850691420382191
  //            Monomer A HF           //
    Molecular point group: c1
  Multiplicity = 1
  Basis Set: AUG-CC-PVTZ
    Blend: AUG-CC-PVTZ
  Basis Set: (AUG-CC-PVTZ AUX)
    Blend: AUG-CC-PVTZ-JKFIT
  @DF-RHF Final Energy:  -230.78120920869989
    Total Energy =                       -230.7812092086998632
  //            Monomer B HF           //
    Molecular point group: c1

    Geometry (in Angstrom), charge = 0, multiplicity = 1:

       Center              X                  Y                   Z               Mass
    ------------   -----------------  -----------------  -----------------  -----------------
      Gh(C)           0.523872979838     1.022273895271    -3.020685649232    12.000000000000
      Gh(H)           1.127032979838     1.919793895271    -3.028145649232     1.007825032230
      Gh(C)           1.134262979838    -0.228526104729    -3.107175649232    12.000000000000
      Gh(H)           2.210662979838    -0.300586104729    -3.179035649232     1.007825032230
      Gh(C)           0.356812979838    -1.385636104729    -3.099535649232    12.000000000000
      Gh(H)           0.830312979838    -2.355346104729    -3.168155649232     1.007825032230
      Gh(C)          -1.031087020162    -1.293016104729    -3.002325649232    12.000000000000
      Gh(H)          -1.634087020162    -2.190686104729    -2.996815649232     1.007825032230
      Gh(C)          -1.642187020162    -0.042716104729    -2.913275649232    12.000000000000
      Gh(H)          -2.718417020162     0.029483895271    -2.837185649232     1.007825032230
      Gh(C)          -0.864597020162     1.115453895271    -2.923945649232    12.000000000000
      Gh(H)          -1.338957020162     2.085243895271    -2.859085649232     1.007825032230
         C            0.400552979838     2.020413895271     3.008434350768    12.000000000000
         H            0.042402979838     2.186143895271     1.995144350768     1.007825032230
         H            1.425132979838     2.377123895271     3.089874350768     1.007825032230
         H           -0.203547020162     2.594043895271     3.706784350768     1.007825032230
         C            0.363702979838     0.567243895271     3.424144350768    12.000000000000
         O            0.648332979838     0.214883895271     4.562684350768    15.994914619570
         N           -0.008697020162    -0.298466104729     2.444904350768    14.003074004430
         H           -0.169817020162     0.059523895271     1.518834350768     1.007825032230
         C           -0.045487020162    -1.725346104729     2.662994350768    12.000000000000
         H            0.032602979838    -1.892256104729     3.732984350768     1.007825032230
         H           -0.980727020162    -2.143696104729     2.296254350768     1.007825032230
         H            0.783642979838    -2.229226104729     2.165654350768     1.007825032230

  Charge       = 0
  Multiplicity = 1
  Basis Set: AUG-CC-PVTZ
    Blend: AUG-CC-PVTZ
  Basis Set: (AUG-CC-PVTZ AUX)
    Blend: AUG-CC-PVTZ-JKFIT

    Orbital Energies [Eh]
    ---------------------

    Doubly Occupied:

       1A    -20.510669     2A    -15.587572     3A    -11.347389
       4A    -11.256117     5A    -11.234713     6A     -1.373104
       7A     -1.231675     8A     -1.018506     9A     -0.932034
      10A     -0.790535    11A     -0.690332    12A     -0.652475
      13A     -0.633471    14A     -0.586867    15A     -0.580147
      16A     -0.554875    17A     -0.545216    18A     -0.503643
      19A     -0.420230    20A     -0.391904

  @DF-RHF Final Energy:  -247.10268568593136

   => Energetics <=

    Nuclear Repulsion Energy =            180.5517482354897254
    One-Electron Energy =                -693.6259151151508604
    Two-Electron Energy =                 265.9714811937297441
    Total Energy =                       -247.1026856859313625

  Dipole Moment: [D]
     X:    -0.9593      Y:     0.4054      Z:    -4.0267     Total:     4.1592

    SAPT Results
  --------------------------------------------------------------------------------------------------------
    Electrostatics                 -0.92290592 [mEh]      -0.57913221 [kcal/mol]      -2.42308915 [kJ/mol]
      Elst10,r                     -1.09154649 [mEh]      -0.68495576 [kcal/mol]      -2.86585490 [kJ/mol]
      Elst12,r                      0.16864057 [mEh]       0.10582355 [kcal/mol]       0.44276575 [kJ/mol]

    Exchange                        0.01144107 [mEh]       0.00717938 [kcal/mol]       0.03003853 [kJ/mol]
      Exch10                        0.01017465 [mEh]       0.00638469 [kcal/mol]       0.02671355 [kJ/mol]
      Exch10(S^2)                   0.01017464 [mEh]       0.00638468 [kcal/mol]       0.02671350 [kJ/mol]
      Exch11(S^2)                   0.00004516 [mEh]       0.00002834 [kcal/mol]       0.00011857 [kJ/mol]
      Exch12(S^2)                   0.00122125 [mEh]       0.00076635 [kcal/mol]       0.00320640 [kJ/mol]

    Induction                      -0.08080880 [mEh]      -0.05070829 [kcal/mol]      -0.21216347 [kJ/mol]
      Ind20,r                      -0.08941761 [mEh]      -0.05611040 [kcal/mol]      -0.23476590 [kJ/mol]
      Ind22                         0.01233091 [mEh]       0.00773776 [kcal/mol]       0.03237480 [kJ/mol]
      Exch-Ind20,r                  0.00191535 [mEh]       0.00120190 [kcal/mol]       0.00502875 [kJ/mol]
      Exch-Ind22                   -0.00026413 [mEh]      -0.00016574 [kcal/mol]      -0.00069348 [kJ/mol]
      delta HF,r (2)               -0.00537331 [mEh]      -0.00337181 [kcal/mol]      -0.01410763 [kJ/mol]

    Dispersion                     -0.67110113 [mEh]      -0.42112232 [kcal/mol]      -1.76197578 [kJ/mol]
      Disp20                       -0.72646111 [mEh]      -0.45586123 [kcal/mol]      -1.90732338 [kJ/mol]
      Disp21                        0.19137740 [mEh]       0.12009113 [kcal/mol]       0.50246129 [kJ/mol]
      Disp22 (SDQ)                  0.02063395 [mEh]       0.01294800 [kcal/mol]       0.05417443 [kJ/mol]
      Disp22 (T)                   -0.15419592 [mEh]      -0.09675940 [kcal/mol]      -0.40484133 [kJ/mol]
      Est. Disp22 (T)              -0.15918038 [mEh]      -0.09988720 [kcal/mol]      -0.41792803 [kJ/mol]
      Exch-Disp20                   0.00252901 [mEh]       0.00158698 [kcal/mol]       0.00663991 [kJ/mol]

  Total HF                         -1.17424741 [mEh]      -0.73685137 [kcal/mol]      -3.08298614 [kJ/mol]
  Total SAPT0                      -1.89817951 [mEh]      -1.19112562 [kcal/mol]      -4.98366961 [kJ/mol]
  Total SAPT2                      -1.71620574 [mEh]      -1.07693536 [kcal/mol]      -4.50589756 [kJ/mol]
  Total SAPT2+                     -1.66337478 [mEh]      -1.04378343 [kcal/mol]      -4.36718988 [kJ/mol]

  Special recipe for scaled SAPT0 (see Manual):
    Electrostatics sSAPT0          -1.09154649 [mEh]      -0.68495576 [kcal/mol]      -2.86585490 [kJ/mol]
    Exchange sSAPT0                 0.01017465 [mEh]       0.00638469 [kcal/mol]       0.02671355 [kJ/mol]
    Induction sSAPT0               -0.09287556 [mEh]      -0.05828030 [kcal/mol]      -0.24384476 [kJ/mol]
    Dispersion sSAPT0              -0.72393209 [mEh]      -0.45427424 [kcal/mol]      -1.90068343 [kJ/mol]
  Total sSAPT0                     -1.89817948 [mEh]      -1.19112561 [kcal/mol]      -4.98366955 [kJ/mol]
  --------------------------------------------------------------------------------------------------------

*** Psi4 exiting successfully. Buy a developer a beer!
