                               Psi4 1.4a2.dev224

  ==> Input File <==

--------------------------------------------------------------------------
#Generated by lconvert.py for sapt job

memory 25 GB

molecule  {
0 1
  C       0.408780    1.051030    0.375540
  H       1.011940    1.948550    0.368080
  C       1.019170   -0.199770    0.289050
  H       2.095570   -0.271830    0.217190
  C       0.241720   -1.356880    0.296690
  H       0.715220   -2.326590    0.228070
  C      -1.146180   -1.264260    0.393900
  H      -1.749180   -2.161930    0.399410
  C      -1.757280   -0.013960    0.482950
  H      -2.833510    0.058240    0.559040
  C      -0.979690    1.144210    0.472280
  H      -1.454050    2.114000    0.537140
--
0 1
  C       0.264780    2.001210    5.290020
  H      -0.093360    2.166950    4.276730
  H       1.289370    2.357920    5.371460
  H      -0.339310    2.574850    5.988370
  C       0.227940    0.548050    5.705730
  O       0.512570    0.195690    6.844270
  N      -0.144460   -0.317670    4.726490
  H      -0.305580    0.040320    3.800420
  C      -0.181250   -1.744550    4.944580
  H      -0.103160   -1.911450    6.014570
  H      -1.116490   -2.162890    4.577840
  H       0.647880   -2.248420    4.447240
units angstrom
no_reorient
symmetry c1
}

set {
scf_type DF
basis aug-cc-pvtz
freeze_core True
guess SAD
}
energy('sapt2+')
--------------------------------------------------------------------------

  //              Dimer HF             //
    Molecular point group: c1
  Charge       = 0
  Multiplicity = 1
  Basis Set: AUG-CC-PVTZ
    Blend: AUG-CC-PVTZ
  Basis Set: (AUG-CC-PVTZ AUX)
    Blend: AUG-CC-PVTZ-JKFIT
  @DF-RHF Final Energy:  -477.88618803748381
    Total Energy =                       -477.8861880374837483
  //            Monomer A HF           //
    Molecular point group: c1
  Multiplicity = 1
  Basis Set: AUG-CC-PVTZ
    Blend: AUG-CC-PVTZ
  Basis Set: (AUG-CC-PVTZ AUX)
    Blend: AUG-CC-PVTZ-JKFIT
  @DF-RHF Final Energy:  -230.78128091430290
    Total Energy =                       -230.7812809143028971
  //            Monomer B HF           //
    Molecular point group: c1

    Geometry (in Angstrom), charge = 0, multiplicity = 1:

       Center              X                  Y                   Z               Mass
    ------------   -----------------  -----------------  -----------------  -----------------
      Gh(C)           0.533867178956     1.045459115945    -2.481786332228    12.000000000000
      Gh(H)           1.137027178956     1.942979115945    -2.489246332228     1.007825032230
      Gh(C)           1.144257178956    -0.205340884055    -2.568276332228    12.000000000000
      Gh(H)           2.220657178956    -0.277400884055    -2.640136332228     1.007825032230
      Gh(C)           0.366807178956    -1.362450884055    -2.560636332228    12.000000000000
      Gh(H)           0.840307178956    -2.332160884055    -2.629256332228     1.007825032230
      Gh(C)          -1.021092821044    -1.269830884055    -2.463426332228    12.000000000000
      Gh(H)          -1.624092821044    -2.167500884055    -2.457916332228     1.007825032230
      Gh(C)          -1.632192821044    -0.019530884055    -2.374376332228    12.000000000000
      Gh(H)          -2.708422821044     0.052669115945    -2.298286332228     1.007825032230
      Gh(C)          -0.854602821044     1.138639115945    -2.385046332228    12.000000000000
      Gh(H)          -1.328962821044     2.108429115945    -2.320186332228     1.007825032230
         C            0.389867178956     1.995639115945     2.432693667772    12.000000000000
         H            0.031727178956     2.161379115945     1.419403667772     1.007825032230
         H            1.414457178956     2.352349115945     2.514133667772     1.007825032230
         H           -0.214222821044     2.569279115945     3.131043667772     1.007825032230
         C            0.353027178956     0.542479115945     2.848403667772    12.000000000000
         O            0.637657178956     0.190119115945     3.986943667772    15.994914619570
         N           -0.019372821044    -0.323240884055     1.869163667772    14.003074004430
         H           -0.180492821044     0.034749115945     0.943093667772     1.007825032230
         C           -0.056162821044    -1.750120884055     2.087253667772    12.000000000000
         H            0.021927178956    -1.917020884055     3.157243667772     1.007825032230
         H           -0.991402821044    -2.168460884055     1.720513667772     1.007825032230
         H            0.772967178956    -2.253990884055     1.589913667772     1.007825032230

  Charge       = 0
  Multiplicity = 1
  Basis Set: AUG-CC-PVTZ
    Blend: AUG-CC-PVTZ
  Basis Set: (AUG-CC-PVTZ AUX)
    Blend: AUG-CC-PVTZ-JKFIT

    Orbital Energies [Eh]
    ---------------------

    Doubly Occupied:

       1A    -20.510665     2A    -15.587569     3A    -11.347387
       4A    -11.256123     5A    -11.234716     6A     -1.373102
       7A     -1.231673     8A     -1.018507     9A     -0.932032
      10A     -0.790531    11A     -0.690331    12A     -0.652473
      13A     -0.633471    14A     -0.586866    15A     -0.580148
      16A     -0.554873    17A     -0.545214    18A     -0.503641
      19A     -0.420230    20A     -0.391902

  @DF-RHF Final Energy:  -247.10272160883690

   => Energetics <=

    Nuclear Repulsion Energy =            180.5517580938571314
    One-Electron Energy =                -693.6260467409670127
    Two-Electron Energy =                 265.9715670382729513
    Total Energy =                       -247.1027216088368732

  Dipole Moment: [D]
     X:    -0.9593      Y:     0.4055      Z:    -4.0265     Total:     4.1590

    SAPT Results
  --------------------------------------------------------------------------------------------------------
    Electrostatics                 -1.89821423 [mEh]      -1.19114741 [kcal/mol]      -4.98376078 [kJ/mol]
      Elst10,r                     -2.19979261 [mEh]      -1.38039070 [kcal/mol]      -5.77555469 [kJ/mol]
      Elst12,r                      0.30157837 [mEh]       0.18924329 [kcal/mol]       0.79179391 [kJ/mol]

    Exchange                        0.42233255 [mEh]       0.26501768 [kcal/mol]       1.10883397 [kJ/mol]
      Exch10                        0.38483597 [mEh]       0.24148822 [kcal/mol]       1.01038670 [kJ/mol]
      Exch10(S^2)                   0.38479693 [mEh]       0.24146372 [kcal/mol]       1.01028420 [kJ/mol]
      Exch11(S^2)                   0.00800284 [mEh]       0.00502186 [kcal/mol]       0.02101146 [kJ/mol]
      Exch12(S^2)                   0.02949374 [mEh]       0.01850760 [kcal/mol]       0.07743580 [kJ/mol]

    Induction                      -0.34713988 [mEh]      -0.21783356 [kcal/mol]      -0.91141562 [kJ/mol]
      Ind20,r                      -0.38011567 [mEh]      -0.23852618 [kcal/mol]      -0.99799355 [kJ/mol]
      Ind22                         0.02911018 [mEh]       0.01826691 [kcal/mol]       0.07642877 [kJ/mol]
      Exch-Ind20,r                  0.07432969 [mEh]       0.04664259 [kcal/mol]       0.19515258 [kJ/mol]
      Exch-Ind22                   -0.00569235 [mEh]      -0.00357200 [kcal/mol]      -0.01494526 [kJ/mol]
      delta HF,r (2)               -0.06477173 [mEh]      -0.04064488 [kcal/mol]      -0.17005816 [kJ/mol]

    Dispersion                     -2.50302631 [mEh]      -1.57067272 [kcal/mol]      -6.57169466 [kJ/mol]
      Disp20                       -2.70615179 [mEh]      -1.69813588 [kcal/mol]      -7.10500054 [kJ/mol]
      Disp21                        0.61445813 [mEh]       0.38557830 [kcal/mol]       1.61325960 [kJ/mol]
      Disp22 (SDQ)                  0.09905100 [mEh]       0.06215544 [kcal/mol]       0.26005835 [kJ/mol]
      Disp22 (T)                   -0.55135533 [mEh]      -0.34598069 [kcal/mol]      -1.44758321 [kJ/mol]
      Est. Disp22 (T)              -0.58090925 [mEh]      -0.36452606 [kcal/mol]      -1.52517703 [kJ/mol]
      Exch-Disp20                   0.07052560 [mEh]       0.04425548 [kcal/mol]       0.18516495 [kJ/mol]

  Total HF                         -2.18551434 [mEh]      -1.37143096 [kcal/mol]      -5.73806712 [kJ/mol]
  Total SAPT0                      -4.82114053 [mEh]      -3.02531135 [kcal/mol]     -12.65790271 [kJ/mol]
  Total SAPT2                      -4.45864774 [mEh]      -2.79784370 [kcal/mol]     -11.70617802 [kJ/mol]
  Total SAPT2+                     -4.32604786 [mEh]      -2.71463602 [kcal/mol]     -11.35803710 [kJ/mol]

  Special recipe for scaled SAPT0 (see Manual):
    Electrostatics sSAPT0          -2.19979261 [mEh]      -1.38039070 [kcal/mol]      -5.77555469 [kJ/mol]
    Exchange sSAPT0                 0.38483597 [mEh]       0.24148822 [kcal/mol]       1.01038670 [kJ/mol]
    Induction sSAPT0               -0.37053508 [mEh]      -0.23251427 [kcal/mol]      -0.97283973 [kJ/mol]
    Dispersion sSAPT0              -2.63560471 [mEh]      -1.65386693 [kcal/mol]      -6.91977922 [kJ/mol]
  Total sSAPT0                     -4.82109643 [mEh]      -3.02528368 [kcal/mol]     -12.65778693 [kJ/mol]
  --------------------------------------------------------------------------------------------------------

*** Psi4 exiting successfully. Buy a developer a beer!
