                               Psi4 1.4a2.dev224

  ==> Input File <==

--------------------------------------------------------------------------
#Generated by lconvert.py for sapt job

memory 25 GB

molecule  {
0 1
  C       0.408780    1.051030    0.375540
  H       1.011940    1.948550    0.368080
  C       1.019170   -0.199770    0.289050
  H       2.095570   -0.271830    0.217190
  C       0.241720   -1.356880    0.296690
  H       0.715220   -2.326590    0.228070
  C      -1.146180   -1.264260    0.393900
  H      -1.749180   -2.161930    0.399410
  C      -1.757280   -0.013960    0.482950
  H      -2.833510    0.058240    0.559040
  C      -0.979690    1.144210    0.472280
  H      -1.454050    2.114000    0.537140
--
0 1
  C       0.306120    2.097120    7.519300
  H      -0.052020    2.262850    6.506010
  H       1.330710    2.453830    7.600740
  H      -0.297970    2.670750    8.217650
  C       0.269280    0.643960    7.935010
  O       0.553910    0.291590    9.073540
  N      -0.103120   -0.221760    6.955770
  H      -0.264250    0.136230    6.029700
  C      -0.139910   -1.648640    7.173850
  H      -0.061820   -1.815550    8.243850
  H      -1.075150   -2.066990    6.807110
  H       0.689220   -2.152510    6.676520
units angstrom
no_reorient
symmetry c1
}

set {
scf_type DF
basis aug-cc-pvtz
freeze_core True
guess SAD
}
energy('sapt2+')
--------------------------------------------------------------------------

  //              Dimer HF             //
    Molecular point group: c1
  Charge       = 0
  Multiplicity = 1
  Basis Set: AUG-CC-PVTZ
    Blend: AUG-CC-PVTZ
  Basis Set: (AUG-CC-PVTZ AUX)
    Blend: AUG-CC-PVTZ-JKFIT
  @DF-RHF Final Energy:  -477.88449148274549
    Total Energy =                       -477.8844914827454886
  //            Monomer A HF           //
    Molecular point group: c1
  Multiplicity = 1
  Basis Set: AUG-CC-PVTZ
    Blend: AUG-CC-PVTZ
  Basis Set: (AUG-CC-PVTZ AUX)
    Blend: AUG-CC-PVTZ-JKFIT
  @DF-RHF Final Energy:  -230.78118414700359
    Total Energy =                       -230.7811841470036143
  //            Monomer B HF           //
    Molecular point group: c1

    Geometry (in Angstrom), charge = 0, multiplicity = 1:

       Center              X                  Y                   Z               Mass
    ------------   -----------------  -----------------  -----------------  -----------------
      Gh(C)           0.513880435775     0.999090462218    -3.559583046793    12.000000000000
      Gh(H)           1.117040435775     1.896610462218    -3.567043046793     1.007825032230
      Gh(C)           1.124270435775    -0.251709537782    -3.646073046793    12.000000000000
      Gh(H)           2.200670435775    -0.323769537782    -3.717933046793     1.007825032230
      Gh(C)           0.346820435775    -1.408819537782    -3.638433046793    12.000000000000
      Gh(H)           0.820320435775    -2.378529537782    -3.707053046793     1.007825032230
      Gh(C)          -1.041079564225    -1.316199537782    -3.541223046793    12.000000000000
      Gh(H)          -1.644079564225    -2.213869537782    -3.535713046793     1.007825032230
      Gh(C)          -1.652179564225    -0.065899537782    -3.452173046793    12.000000000000
      Gh(H)          -2.728409564225     0.006300462218    -3.376083046793     1.007825032230
      Gh(C)          -0.874589564225     1.092270462218    -3.462843046793    12.000000000000
      Gh(H)          -1.348949564225     2.062060462218    -3.397983046793     1.007825032230
         C            0.411220435775     2.045180462218     3.584176953207    12.000000000000
         H            0.053080435775     2.210910462218     2.570886953207     1.007825032230
         H            1.435810435775     2.401890462218     3.665616953207     1.007825032230
         H           -0.192869564225     2.618810462218     4.282526953207     1.007825032230
         C            0.374380435775     0.592020462218     3.999886953207    12.000000000000
         O            0.659010435775     0.239650462218     5.138416953207    15.994914619570
         N            0.001980435775    -0.273699537782     3.020646953207    14.003074004430
         H           -0.159149564225     0.084290462218     2.094576953207     1.007825032230
         C           -0.034809564225    -1.700579537782     3.238726953207    12.000000000000
         H            0.043280435775    -1.867489537782     4.308726953207     1.007825032230
         H           -0.970049564225    -2.118929537782     2.871986953207     1.007825032230
         H            0.794320435775    -2.204449537782     2.741396953207     1.007825032230

  Charge       = 0
  Multiplicity = 1
  Basis Set: AUG-CC-PVTZ
    Blend: AUG-CC-PVTZ
  Basis Set: (AUG-CC-PVTZ AUX)
    Blend: AUG-CC-PVTZ-JKFIT

    Orbital Energies [Eh]
    ---------------------

    Doubly Occupied:

       1A    -20.510671     2A    -15.587569     3A    -11.347389
       4A    -11.256113     5A    -11.234712     6A     -1.373108
       7A     -1.231672     8A     -1.018509     9A     -0.932034
      10A     -0.790531    11A     -0.690333    12A     -0.652476
      13A     -0.633472    14A     -0.586868    15A     -0.580150
      16A     -0.554875    17A     -0.545212    18A     -0.503644
      19A     -0.420232    20A     -0.391902

  @DF-RHF Final Energy:  -247.10267390441902

   => Energetics <=

    Nuclear Repulsion Energy =            180.5519500818223833
    One-Electron Energy =                -693.6263015446631925
    Two-Electron Energy =                 265.9716775584217885
    Total Energy =                       -247.1026739044190208

  Dipole Moment: [D]
     X:    -0.9593      Y:     0.4055      Z:    -4.0266     Total:     4.1591

    SAPT Results
  --------------------------------------------------------------------------------------------------------
    Electrostatics                 -0.50727441 [mEh]      -0.31831950 [kcal/mol]      -1.33184877 [kJ/mol]
      Elst10,r                     -0.60179187 [mEh]      -0.37763010 [kcal/mol]      -1.58000433 [kJ/mol]
      Elst12,r                      0.09451746 [mEh]       0.05931060 [kcal/mol]       0.24815556 [kJ/mol]

    Exchange                        0.00029198 [mEh]       0.00018322 [kcal/mol]       0.00076660 [kJ/mol]
      Exch10                        0.00026451 [mEh]       0.00016598 [kcal/mol]       0.00069448 [kJ/mol]
      Exch10(S^2)                   0.00026451 [mEh]       0.00016598 [kcal/mol]       0.00069448 [kJ/mol]
      Exch11(S^2)                  -0.00000206 [mEh]      -0.00000129 [kcal/mol]      -0.00000541 [kJ/mol]
      Exch12(S^2)                   0.00002953 [mEh]       0.00001853 [kcal/mol]       0.00007753 [kJ/mol]

    Induction                      -0.02696954 [mEh]      -0.01692364 [kcal/mol]      -0.07080852 [kJ/mol]
      Ind20,r                      -0.03093327 [mEh]      -0.01941092 [kcal/mol]      -0.08121530 [kJ/mol]
      Ind22                         0.00494198 [mEh]       0.00310114 [kcal/mol]       0.01297516 [kJ/mol]
      Exch-Ind20,r                  0.00004726 [mEh]       0.00002965 [kcal/mol]       0.00012407 [kJ/mol]
      Exch-Ind22                   -0.00000755 [mEh]      -0.00000474 [kcal/mol]      -0.00001982 [kJ/mol]
      delta HF,r (2)               -0.00101795 [mEh]      -0.00063877 [kcal/mol]      -0.00267263 [kJ/mol]

    Dispersion                     -0.23085732 [mEh]      -0.14486515 [kcal/mol]      -0.60611580 [kJ/mol]
      Disp20                       -0.25260101 [mEh]      -0.15850953 [kcal/mol]      -0.66320386 [kJ/mol]
      Disp21                        0.07189278 [mEh]       0.04511340 [kcal/mol]       0.18875446 [kJ/mol]
      Disp22 (SDQ)                  0.00566727 [mEh]       0.00355626 [kcal/mol]       0.01487941 [kJ/mol]
      Disp22 (T)                   -0.05488109 [mEh]      -0.03443840 [kcal/mol]      -0.14409029 [kJ/mol]
      Est. Disp22 (T)              -0.05589731 [mEh]      -0.03507609 [kcal/mol]      -0.14675837 [kJ/mol]
      Exch-Disp20                   0.00008096 [mEh]       0.00005081 [kcal/mol]       0.00021257 [kJ/mol]

  Total HF                         -0.63343132 [mEh]      -0.39748416 [kcal/mol]      -1.66307371 [kJ/mol]
  Total SAPT0                      -0.88595137 [mEh]      -0.55594288 [kcal/mol]      -2.32606500 [kJ/mol]
  Total SAPT2                      -0.78647201 [mEh]      -0.49351864 [kcal/mol]      -2.06488199 [kJ/mol]
  Total SAPT2+                     -0.76480928 [mEh]      -0.47992507 [kcal/mol]      -2.00800649 [kJ/mol]

  Special recipe for scaled SAPT0 (see Manual):
    Electrostatics sSAPT0          -0.60179187 [mEh]      -0.37763010 [kcal/mol]      -1.58000433 [kJ/mol]
    Exchange sSAPT0                 0.00026451 [mEh]       0.00016598 [kcal/mol]       0.00069448 [kJ/mol]
    Induction sSAPT0               -0.03190397 [mEh]      -0.02002004 [kcal/mol]      -0.08376386 [kJ/mol]
    Dispersion sSAPT0              -0.25252005 [mEh]      -0.15845872 [kcal/mol]      -0.66299129 [kJ/mol]
  Total sSAPT0                     -0.88595137 [mEh]      -0.55594288 [kcal/mol]      -2.32606500 [kJ/mol]
  --------------------------------------------------------------------------------------------------------

*** Psi4 exiting successfully. Buy a developer a beer!
