                               Psi4 1.4a2.dev224

  ==> Input File <==

--------------------------------------------------------------------------
#Generated by lconvert.py for sapt job

memory 50 GB

molecule  {
0 1
  N      -0.941210    0.790040    0.011720
  C      -0.922750   -0.552380    0.035380
  H       0.057240   -1.015590    0.051350
  C      -2.076520   -1.333020    0.039290
  H      -1.996530   -2.410590    0.058880
  C      -3.316310   -0.703340    0.017600
  H      -4.231580   -1.279080    0.019790
  C      -3.348900    0.687020   -0.007090
  H      -4.285440    1.226110   -0.024660
  C      -2.143100    1.382630   -0.008890
  H      -2.138100    2.465650   -0.027780
--
0 1
  N       4.795490   -0.890110    0.035240
  C       5.997270   -1.483280    0.037320
  H       5.992050   -2.566240    0.059200
  C       7.203200   -0.788320    0.013310
  H       8.139640   -1.327860    0.016410
  C       7.170890    0.601980   -0.014430
  H       8.086260    1.177230   -0.033610
  C       5.931210    1.232270   -0.016910
  H       5.851440    2.309830   -0.038000
  C       4.777290    0.452260    0.008280
  H       3.797380    0.915920    0.006620
units angstrom
no_reorient
symmetry c1
}

set {
scf_type DF
basis aug-cc-pvtz
freeze_core True
guess SAD
}
energy('sapt2+')
--------------------------------------------------------------------------

  //              Dimer HF             //
    Molecular point group: c1
  Charge       = 0
  Multiplicity = 1
  Basis Set: AUG-CC-PVTZ
    Blend: AUG-CC-PVTZ
  Basis Set: (AUG-CC-PVTZ AUX)
    Blend: AUG-CC-PVTZ-JKFIT
  @DF-RHF Final Energy:  -493.55761778160883
    Total Energy =                       -493.5576177816087693
  //            Monomer A HF           //
    Molecular point group: c1
  Multiplicity = 1
  Basis Set: AUG-CC-PVTZ
    Blend: AUG-CC-PVTZ
  Basis Set: (AUG-CC-PVTZ AUX)
    Blend: AUG-CC-PVTZ-JKFIT
  @DF-RHF Final Energy:  -246.77853480436505
    Total Energy =                       -246.7785348043650515
  //            Monomer B HF           //
    Molecular point group: c1

    Geometry (in Angstrom), charge = 0, multiplicity = 1:

       Center              X                  Y                   Z               Mass
    ------------   -----------------  -----------------  -----------------  -----------------
      Gh(N)          -2.868422919985     0.840392953026    -0.000885889918    14.003074004430
      Gh(C)          -2.849962919985    -0.502027046974     0.022774110082    12.000000000000
      Gh(H)          -1.869972919985    -0.965237046974     0.038744110082     1.007825032230
      Gh(C)          -4.003732919985    -1.282667046974     0.026684110082    12.000000000000
      Gh(H)          -3.923742919985    -2.360237046974     0.046274110082     1.007825032230
      Gh(C)          -5.243522919985    -0.652987046974     0.004994110082    12.000000000000
      Gh(H)          -6.158792919985    -1.228727046974     0.007184110082     1.007825032230
      Gh(C)          -5.276112919985     0.737372953026    -0.019695889918    12.000000000000
      Gh(H)          -6.212652919985     1.276462953026    -0.037265889918     1.007825032230
      Gh(C)          -4.070312919985     1.432982953026    -0.021495889918    12.000000000000
      Gh(H)          -4.065312919985     2.516002953026    -0.040385889918     1.007825032230
         N            2.868277080015    -0.839757046974     0.022634110082    14.003074004430
         C            4.070057080015    -1.432927046974     0.024714110082    12.000000000000
         H            4.064837080015    -2.515887046974     0.046594110082     1.007825032230
         C            5.275987080015    -0.737967046974     0.000704110082    12.000000000000
         H            6.212427080015    -1.277507046974     0.003804110082     1.007825032230
         C            5.243677080015     0.652332953026    -0.027035889918    12.000000000000
         H            6.159047080015     1.227582953026    -0.046215889918     1.007825032230
         C            4.003997080015     1.282622953026    -0.029515889918    12.000000000000
         H            3.924227080015     2.360182953026    -0.050605889918     1.007825032230
         C            2.850077080015     0.502612953026    -0.004325889918    12.000000000000
         H            1.870167080015     0.966272953026    -0.005985889918     1.007825032230

  Charge       = 0
  Multiplicity = 1
  Basis Set: AUG-CC-PVTZ
    Blend: AUG-CC-PVTZ
  Basis Set: (AUG-CC-PVTZ AUX)
    Blend: AUG-CC-PVTZ-JKFIT

    Orbital Energies [Eh]
    ---------------------

    Doubly Occupied:

       1A    -15.567497     2A    -11.276122     3A    -11.275346
       4A    -11.260666     5A    -11.242684     6A    -11.242609
       7A     -1.256100     8A     -1.089997     9A     -1.034109
      10A     -0.859822    11A     -0.855963    12A     -0.722203
      13A     -0.660700    14A     -0.654677    15A     -0.598938
      16A     -0.577618    17A     -0.541116    18A     -0.520652
      19A     -0.419380    20A     -0.384031    21A     -0.348240

  @DF-RHF Final Energy:  -246.77853458825308

   => Energetics <=

    Nuclear Repulsion Energy =            206.1685472948651636
    One-Electron Energy =                -741.1172262757891076
    Two-Electron Energy =                 288.1701443926708066
    Total Energy =                       -246.7785345882530805

  Dipole Moment: [D]
     X:     1.9672      Y:     1.2425      Z:    -0.0416     Total:     2.3271

    SAPT Results
  --------------------------------------------------------------------------------------------------------
    Electrostatics                 -0.43347628 [mEh]      -0.27201048 [kcal/mol]      -1.13809183 [kJ/mol]
      Elst10,r                     -0.51226918 [mEh]      -0.32145376 [kcal/mol]      -1.34496254 [kJ/mol]
      Elst12,r                      0.07879289 [mEh]       0.04944329 [kcal/mol]       0.20687071 [kJ/mol]

    Exchange                        0.00396568 [mEh]       0.00248850 [kcal/mol]       0.01041189 [kJ/mol]
      Exch10                        0.00260293 [mEh]       0.00163336 [kcal/mol]       0.00683398 [kJ/mol]
      Exch10(S^2)                   0.00260293 [mEh]       0.00163336 [kcal/mol]       0.00683398 [kJ/mol]
      Exch11(S^2)                  -0.00031664 [mEh]      -0.00019869 [kcal/mol]      -0.00083133 [kJ/mol]
      Exch12(S^2)                   0.00167939 [mEh]       0.00105383 [kcal/mol]       0.00440924 [kJ/mol]

    Induction                      -0.03855248 [mEh]      -0.02419204 [kcal/mol]      -0.10121951 [kJ/mol]
      Ind20,r                      -0.04009442 [mEh]      -0.02515963 [kcal/mol]      -0.10526788 [kJ/mol]
      Ind22                         0.00017108 [mEh]       0.00010735 [kcal/mol]       0.00044916 [kJ/mol]
      Exch-Ind20,r                  0.00019064 [mEh]       0.00011963 [kcal/mol]       0.00050053 [kJ/mol]
      Exch-Ind22                   -0.00000081 [mEh]      -0.00000051 [kcal/mol]      -0.00000214 [kJ/mol]
      delta HF,r (2)                0.00118104 [mEh]       0.00074111 [kcal/mol]       0.00310081 [kJ/mol]

    Dispersion                     -0.34162132 [mEh]      -0.21437062 [kcal/mol]      -0.89692666 [kJ/mol]
      Disp20                       -0.34217035 [mEh]      -0.21471513 [kcal/mol]      -0.89836812 [kJ/mol]
      Disp21                        0.09681095 [mEh]       0.06074979 [kcal/mol]       0.25417712 [kJ/mol]
      Disp22 (SDQ)                 -0.00518194 [mEh]      -0.00325172 [kcal/mol]      -0.01360519 [kJ/mol]
      Disp22 (T)                   -0.08963584 [mEh]      -0.05624734 [kcal/mol]      -0.23533886 [kJ/mol]
      Est. Disp22 (T)              -0.09164631 [mEh]      -0.05750893 [kcal/mol]      -0.24061735 [kJ/mol]
      Exch-Disp20                   0.00056632 [mEh]       0.00035537 [kcal/mol]       0.00148687 [kJ/mol]

  Total HF                         -0.54838899 [mEh]      -0.34411929 [kcal/mol]      -1.43979510 [kJ/mol]
  Total SAPT0                      -0.88999302 [mEh]      -0.55847905 [kcal/mol]      -2.33667634 [kJ/mol]
  Total SAPT2                      -0.80966710 [mEh]      -0.50807378 [kcal/mol]      -2.12578069 [kJ/mol]
  Total SAPT2+                     -0.80968440 [mEh]      -0.50808463 [kcal/mol]      -2.12582611 [kJ/mol]

  Special recipe for scaled SAPT0 (see Manual):
    Electrostatics sSAPT0          -0.51226918 [mEh]      -0.32145376 [kcal/mol]      -1.34496254 [kJ/mol]
    Exchange sSAPT0                 0.00260293 [mEh]       0.00163336 [kcal/mol]       0.00683398 [kJ/mol]
    Induction sSAPT0               -0.03872274 [mEh]      -0.02429889 [kcal/mol]      -0.10166654 [kJ/mol]
    Dispersion sSAPT0              -0.34160403 [mEh]      -0.21435976 [kcal/mol]      -0.89688124 [kJ/mol]
  Total sSAPT0                     -0.88999302 [mEh]      -0.55847905 [kcal/mol]      -2.33667634 [kJ/mol]
  --------------------------------------------------------------------------------------------------------

*** Psi4 exiting successfully. Buy a developer a beer!
