                               Psi4 1.4a2.dev224

  ==> Input File <==

--------------------------------------------------------------------------
#Generated by lconvert.py for sapt job

memory 50 GB

molecule  {
0 1
  N      -0.941210    0.790040    0.011720
  C      -0.922750   -0.552380    0.035380
  H       0.057240   -1.015590    0.051350
  C      -2.076520   -1.333020    0.039290
  H      -1.996530   -2.410590    0.058880
  C      -3.316310   -0.703340    0.017600
  H      -4.231580   -1.279080    0.019790
  C      -3.348900    0.687020   -0.007090
  H      -4.285440    1.226110   -0.024660
  C      -2.143100    1.382630   -0.008890
  H      -2.138100    2.465650   -0.027780
--
0 1
  N       4.079710   -0.909060    0.037790
  C       5.281490   -1.502230    0.039870
  H       5.276260   -2.585200    0.061760
  C       6.487420   -0.807270    0.015870
  H       7.423860   -1.346810    0.018960
  C       6.455110    0.583030   -0.011880
  H       7.370480    1.158280   -0.031060
  C       5.215430    1.213320   -0.014360
  H       5.135650    2.290880   -0.035450
  C       4.061510    0.433310    0.010840
  H       3.081600    0.896970    0.009170
units angstrom
no_reorient
symmetry c1
}

set {
scf_type DF
basis aug-cc-pvtz
freeze_core True
guess SAD
}
energy('sapt2+')
--------------------------------------------------------------------------

  //              Dimer HF             //
    Molecular point group: c1
  Charge       = 0
  Multiplicity = 1
  Basis Set: AUG-CC-PVTZ
    Blend: AUG-CC-PVTZ
  Basis Set: (AUG-CC-PVTZ AUX)
    Blend: AUG-CC-PVTZ-JKFIT
  @DF-RHF Final Energy:  -493.55816736098996
    Total Energy =                       -493.5581673609899553
  //            Monomer A HF           //
    Molecular point group: c1
  Multiplicity = 1
  Basis Set: AUG-CC-PVTZ
    Blend: AUG-CC-PVTZ
  Basis Set: (AUG-CC-PVTZ AUX)
    Blend: AUG-CC-PVTZ-JKFIT
  @DF-RHF Final Energy:  -246.77854691772882
    Total Energy =                       -246.7785469177288178
  //            Monomer B HF           //
    Molecular point group: c1

    Geometry (in Angstrom), charge = 0, multiplicity = 1:

       Center              X                  Y                   Z               Mass
    ------------   -----------------  -----------------  -----------------  -----------------
      Gh(N)          -2.510532792481     0.849868016779    -0.002162471847    14.003074004430
      Gh(C)          -2.492072792481    -0.492551983221     0.021497528153    12.000000000000
      Gh(H)          -1.512082792481    -0.955761983221     0.037467528153     1.007825032230
      Gh(C)          -3.645842792481    -1.273191983221     0.025407528153    12.000000000000
      Gh(H)          -3.565852792481    -2.350761983221     0.044997528153     1.007825032230
      Gh(C)          -4.885632792481    -0.643511983221     0.003717528153    12.000000000000
      Gh(H)          -5.800902792481    -1.219251983221     0.005907528153     1.007825032230
      Gh(C)          -4.918222792481     0.746848016779    -0.020972471847    12.000000000000
      Gh(H)          -5.854762792481     1.285938016779    -0.038542471847     1.007825032230
      Gh(C)          -3.712422792481     1.442458016779    -0.022772471847    12.000000000000
      Gh(H)          -3.707422792481     2.525478016779    -0.041662471847     1.007825032230
         N            2.510387207519    -0.849231983221     0.023907528153    14.003074004430
         C            3.712167207519    -1.442401983221     0.025987528153    12.000000000000
         H            3.706937207519    -2.525371983221     0.047877528153     1.007825032230
         C            4.918097207519    -0.747441983221     0.001987528153    12.000000000000
         H            5.854537207519    -1.286981983221     0.005077528153     1.007825032230
         C            4.885787207519     0.642858016779    -0.025762471847    12.000000000000
         H            5.801157207519     1.218108016779    -0.044942471847     1.007825032230
         C            3.646107207519     1.273148016779    -0.028242471847    12.000000000000
         H            3.566327207519     2.350708016779    -0.049332471847     1.007825032230
         C            2.492187207519     0.493138016779    -0.003042471847    12.000000000000
         H            1.512277207519     0.956798016779    -0.004712471847     1.007825032230

  Charge       = 0
  Multiplicity = 1
  Basis Set: AUG-CC-PVTZ
    Blend: AUG-CC-PVTZ
  Basis Set: (AUG-CC-PVTZ AUX)
    Blend: AUG-CC-PVTZ-JKFIT

    Orbital Energies [Eh]
    ---------------------

    Doubly Occupied:

       1A    -15.567496     2A    -11.276123     3A    -11.275347
       4A    -11.260666     5A    -11.242683     6A    -11.242609
       7A     -1.256101     8A     -1.089996     9A     -1.034108
      10A     -0.859821    11A     -0.855962    12A     -0.722202
      13A     -0.660699    14A     -0.654676    15A     -0.598937
      16A     -0.577618    17A     -0.541116    18A     -0.520651
      19A     -0.419381    20A     -0.384031    21A     -0.348240

  @DF-RHF Final Energy:  -246.77854656781716

   => Energetics <=

    Nuclear Repulsion Energy =            206.1684955603329570
    One-Electron Energy =                -741.1171568185498018
    Two-Electron Energy =                 288.1701146903996573
    Total Energy =                       -246.7785465678171590

  Dipole Moment: [D]
     X:     1.9671      Y:     1.2425      Z:    -0.0416     Total:     2.3271

    SAPT Results
  --------------------------------------------------------------------------------------------------------
    Electrostatics                 -0.88721657 [mEh]      -0.55673680 [kcal/mol]      -2.32938678 [kJ/mol]
      Elst10,r                     -1.01370684 [mEh]      -0.63611064 [kcal/mol]      -2.66148693 [kJ/mol]
      Elst12,r                      0.12649027 [mEh]       0.07937384 [kcal/mol]       0.33210015 [kJ/mol]

    Exchange                        0.04777419 [mEh]       0.02997876 [kcal/mol]       0.12543112 [kJ/mol]
      Exch10                        0.03433203 [mEh]       0.02154367 [kcal/mol]       0.09013872 [kJ/mol]
      Exch10(S^2)                   0.03433193 [mEh]       0.02154361 [kcal/mol]       0.09013847 [kJ/mol]
      Exch11(S^2)                  -0.00285394 [mEh]      -0.00179087 [kcal/mol]      -0.00749302 [kJ/mol]
      Exch12(S^2)                   0.01629611 [mEh]       0.01022596 [kcal/mol]       0.04278542 [kJ/mol]

    Induction                      -0.09599207 [mEh]      -0.06023594 [kcal/mol]      -0.25202716 [kJ/mol]
      Ind20,r                      -0.09733321 [mEh]      -0.06107751 [kcal/mol]      -0.25554830 [kJ/mol]
      Ind22                        -0.00153911 [mEh]      -0.00096581 [kcal/mol]      -0.00404094 [kJ/mol]
      Exch-Ind20,r                  0.00301486 [mEh]       0.00189185 [kcal/mol]       0.00791551 [kJ/mol]
      Exch-Ind22                    0.00004767 [mEh]       0.00002992 [kcal/mol]       0.00012517 [kJ/mol]
      delta HF,r (2)               -0.00018229 [mEh]      -0.00011439 [kcal/mol]      -0.00047859 [kJ/mol]

    Dispersion                     -0.74171495 [mEh]      -0.46543316 [kcal/mol]      -1.94737234 [kJ/mol]
      Disp20                       -0.72914132 [mEh]      -0.45754309 [kcal/mol]      -1.91436027 [kJ/mol]
      Disp21                        0.17812970 [mEh]       0.11177807 [kcal/mol]       0.46767945 [kJ/mol]
      Disp22 (SDQ)                 -0.00837269 [mEh]      -0.00525394 [kcal/mol]      -0.02198250 [kJ/mol]
      Disp22 (T)                   -0.18174321 [mEh]      -0.11404558 [kcal/mol]      -0.47716672 [kJ/mol]
      Est. Disp22 (T)              -0.18841744 [mEh]      -0.11823373 [kcal/mol]      -0.49468991 [kJ/mol]
      Exch-Disp20                   0.00608680 [mEh]       0.00381952 [kcal/mol]       0.01598089 [kJ/mol]

  Total HF                         -1.07387544 [mEh]      -0.67386701 [kcal/mol]      -2.81945959 [kJ/mol]
  Total SAPT0                      -1.79692996 [mEh]      -1.12759057 [kcal/mol]      -4.71783897 [kJ/mol]
  Total SAPT2                      -1.65848897 [mEh]      -1.04071754 [kcal/mol]      -4.35436219 [kJ/mol]
  Total SAPT2+                     -1.67714941 [mEh]      -1.05242714 [kcal/mol]      -4.40335516 [kJ/mol]

  Special recipe for scaled SAPT0 (see Manual):
    Electrostatics sSAPT0          -1.01370684 [mEh]      -0.63611064 [kcal/mol]      -2.66148693 [kJ/mol]
    Exchange sSAPT0                 0.03433203 [mEh]       0.02154367 [kcal/mol]       0.09013872 [kJ/mol]
    Induction sSAPT0               -0.09450061 [mEh]      -0.05930003 [kcal/mol]      -0.24811132 [kJ/mol]
    Dispersion sSAPT0              -0.72305447 [mEh]      -0.45372353 [kcal/mol]      -1.89837924 [kJ/mol]
  Total sSAPT0                     -1.79692988 [mEh]      -1.12759053 [kcal/mol]      -4.71783876 [kJ/mol]
  --------------------------------------------------------------------------------------------------------

*** Psi4 exiting successfully. Buy a developer a beer!
