                               Psi4 1.4a2.dev224

  ==> Input File <==

--------------------------------------------------------------------------
#Generated by lconvert.py for sapt job

memory 50 GB

molecule  {
0 1
  N      -0.941210    0.790040    0.011720
  C      -0.922750   -0.552380    0.035380
  H       0.057240   -1.015590    0.051350
  C      -2.076520   -1.333020    0.039290
  H      -1.996530   -2.410590    0.058880
  C      -3.316310   -0.703340    0.017600
  H      -4.231580   -1.279080    0.019790
  C      -3.348900    0.687020   -0.007090
  H      -4.285440    1.226110   -0.024660
  C      -2.143100    1.382630   -0.008890
  H      -2.138100    2.465650   -0.027780
--
0 1
  N       3.363930   -0.928010    0.040340
  C       4.565710   -1.521180    0.042420
  H       4.560480   -2.604150    0.064310
  C       5.771640   -0.826220    0.018420
  H       6.708080   -1.365760    0.021510
  C       5.739320    0.564080   -0.009330
  H       6.654700    1.139330   -0.028510
  C       4.499640    1.194370   -0.011800
  H       4.419870    2.271920   -0.032890
  C       3.345730    0.414360    0.013390
  H       2.365820    0.878020    0.011730
units angstrom
no_reorient
symmetry c1
}

set {
scf_type DF
basis aug-cc-pvtz
freeze_core True
guess SAD
}
energy('sapt2+')
--------------------------------------------------------------------------

  //              Dimer HF             //
    Molecular point group: c1
  Charge       = 0
  Multiplicity = 1
  Basis Set: AUG-CC-PVTZ
    Blend: AUG-CC-PVTZ
  Basis Set: (AUG-CC-PVTZ AUX)
    Blend: AUG-CC-PVTZ-JKFIT
  @DF-RHF Final Energy:  -493.55920504604012
    Total Energy =                       -493.5592050460401197
  //            Monomer A HF           //
    Molecular point group: c1
  Multiplicity = 1
  Basis Set: AUG-CC-PVTZ
    Blend: AUG-CC-PVTZ
  Basis Set: (AUG-CC-PVTZ AUX)
    Blend: AUG-CC-PVTZ-JKFIT
  @DF-RHF Final Energy:  -246.77856911349272
    Total Energy =                       -246.7785691134927220
  //            Monomer B HF           //
    Molecular point group: c1

    Geometry (in Angstrom), charge = 0, multiplicity = 1:

       Center              X                  Y                   Z               Mass
    ------------   -----------------  -----------------  -----------------  -----------------
      Gh(N)          -2.152641274304     0.859343080531    -0.003438358439    14.003074004430
      Gh(C)          -2.134181274304    -0.483076919469     0.020221641561    12.000000000000
      Gh(H)          -1.154191274304    -0.946286919469     0.036191641561     1.007825032230
      Gh(C)          -3.287951274304    -1.263716919469     0.024131641561    12.000000000000
      Gh(H)          -3.207961274304    -2.341286919469     0.043721641561     1.007825032230
      Gh(C)          -4.527741274304    -0.634036919469     0.002441641561    12.000000000000
      Gh(H)          -5.443011274304    -1.209776919469     0.004631641561     1.007825032230
      Gh(C)          -4.560331274304     0.756323080531    -0.022248358439    12.000000000000
      Gh(H)          -5.496871274304     1.295413080531    -0.039818358439     1.007825032230
      Gh(C)          -3.354531274304     1.451933080531    -0.024048358439    12.000000000000
      Gh(H)          -3.349531274304     2.534953080531    -0.042938358439     1.007825032230
         N            2.152498725696    -0.858706919469     0.025181641561    14.003074004430
         C            3.354278725696    -1.451876919469     0.027261641561    12.000000000000
         H            3.349048725696    -2.534846919469     0.049151641561     1.007825032230
         C            4.560208725696    -0.756916919469     0.003261641561    12.000000000000
         H            5.496648725696    -1.296456919469     0.006351641561     1.007825032230
         C            4.527888725696     0.633383080531    -0.024488358439    12.000000000000
         H            5.443268725696     1.208633080531    -0.043668358439     1.007825032230
         C            3.288208725696     1.263673080531    -0.026958358439    12.000000000000
         H            3.208438725696     2.341223080531    -0.048048358439     1.007825032230
         C            2.134298725696     0.483663080531    -0.001768358439    12.000000000000
         H            1.154388725696     0.947323080531    -0.003428358439     1.007825032230

  Charge       = 0
  Multiplicity = 1
  Basis Set: AUG-CC-PVTZ
    Blend: AUG-CC-PVTZ
  Basis Set: (AUG-CC-PVTZ AUX)
    Blend: AUG-CC-PVTZ-JKFIT

    Orbital Energies [Eh]
    ---------------------

    Doubly Occupied:

       1A    -15.567494     2A    -11.276121     3A    -11.275349
       4A    -11.260668     5A    -11.242676     6A    -11.242606
       7A     -1.256102     8A     -1.089995     9A     -1.034109
      10A     -0.859820    11A     -0.855961    12A     -0.722201
      13A     -0.660697    14A     -0.654676    15A     -0.598937
      16A     -0.577614    17A     -0.541116    18A     -0.520649
      19A     -0.419381    20A     -0.384030    21A     -0.348240

  @DF-RHF Final Energy:  -246.77856905466635

   => Energetics <=

    Nuclear Repulsion Energy =            206.1686813779653562
    One-Electron Energy =                -741.1176161784526357
    Two-Electron Energy =                 288.1703657458208454
    Total Energy =                       -246.7785690546663773

  Dipole Moment: [D]
     X:     1.9670      Y:     1.2425      Z:    -0.0416     Total:     2.3270

    SAPT Results
  --------------------------------------------------------------------------------------------------------
    Electrostatics                 -2.01538818 [mEh]      -1.26467518 [kcal/mol]      -5.29140094 [kJ/mol]
      Elst10,r                     -2.19336712 [mEh]      -1.37635865 [kcal/mol]      -5.75868458 [kJ/mol]
      Elst12,r                      0.17797894 [mEh]       0.11168347 [kcal/mol]       0.46728364 [kJ/mol]

    Exchange                        0.56057491 [mEh]       0.35176606 [kcal/mol]       1.47178921 [kJ/mol]
      Exch10                        0.44081518 [mEh]       0.27661570 [kcal/mol]       1.15736009 [kJ/mol]
      Exch10(S^2)                   0.44077247 [mEh]       0.27658890 [kcal/mol]       1.15724796 [kJ/mol]
      Exch11(S^2)                  -0.02006431 [mEh]      -0.01259054 [kcal/mol]      -0.05267883 [kJ/mol]
      Exch12(S^2)                   0.13982404 [mEh]       0.08774091 [kcal/mol]       0.36710796 [kJ/mol]

    Induction                      -0.33253158 [mEh]      -0.20866671 [kcal/mol]      -0.87306153 [kJ/mol]
      Ind20,r                      -0.32082909 [mEh]      -0.20132329 [kcal/mol]      -0.84233665 [kJ/mol]
      Ind22                        -0.02131932 [mEh]      -0.01337808 [kcal/mol]      -0.05597387 [kJ/mol]
      Exch-Ind20,r                  0.04685700 [mEh]       0.02940321 [kcal/mol]       0.12302303 [kJ/mol]
      Exch-Ind22                    0.00311368 [mEh]       0.00195386 [kcal/mol]       0.00817497 [kJ/mol]
      delta HF,r (2)               -0.04035385 [mEh]      -0.02532242 [kcal/mol]      -0.10594902 [kJ/mol]

    Dispersion                     -1.87661653 [mEh]      -1.17759465 [kcal/mol]      -4.92705603 [kJ/mol]
      Disp20                       -1.83329724 [mEh]      -1.15041138 [kcal/mol]      -4.81332123 [kJ/mol]
      Disp21                        0.35359529 [mEh]       0.22188440 [kcal/mol]       0.92836432 [kJ/mol]
      Disp22 (SDQ)                 -0.01166283 [mEh]      -0.00731854 [kcal/mol]      -0.03062076 [kJ/mol]
      Disp22 (T)                   -0.41924744 [mEh]      -0.26308174 [kcal/mol]      -1.10073399 [kJ/mol]
      Est. Disp22 (T)              -0.44743027 [mEh]      -0.28076674 [kcal/mol]      -1.17472802 [kJ/mol]
      Exch-Disp20                   0.06217851 [mEh]       0.03901761 [kcal/mol]       0.16324967 [kJ/mol]

  Total HF                         -2.06687788 [mEh]      -1.29698545 [kcal/mol]      -5.42658713 [kJ/mol]
  Total SAPT0                      -3.83799660 [mEh]      -2.40837923 [kcal/mol]     -10.07665870 [kJ/mol]
  Total SAPT2                      -3.55846357 [mEh]      -2.23296961 [kcal/mol]      -9.34274483 [kJ/mol]
  Total SAPT2+                     -3.66396138 [mEh]      -2.29917048 [kcal/mol]      -9.61972929 [kJ/mol]

  Special recipe for scaled SAPT0 (see Manual):
    Electrostatics sSAPT0          -2.19336712 [mEh]      -1.37635865 [kcal/mol]      -5.75868458 [kJ/mol]
    Exchange sSAPT0                 0.44081518 [mEh]       0.27661570 [kcal/mol]       1.15736009 [kJ/mol]
    Induction sSAPT0               -0.31431232 [mEh]      -0.19723396 [kcal/mol]      -0.82522687 [kJ/mol]
    Dispersion sSAPT0              -1.77110065 [mEh]      -1.11138244 [kcal/mol]      -4.65002411 [kJ/mol]
  Total sSAPT0                     -3.83796491 [mEh]      -2.40835934 [kcal/mol]     -10.07657548 [kJ/mol]
  --------------------------------------------------------------------------------------------------------

*** Psi4 exiting successfully. Buy a developer a beer!
