                               Psi4 1.4a2.dev224

  ==> Input File <==

--------------------------------------------------------------------------
#Generated by lconvert.py for sapt job

memory 25 GB

molecule  {
0 1
  C      -2.275350   -0.135080    0.831330
  H      -2.490720   -0.727930   -0.057570
  H      -2.226320   -0.818450    1.678820
  H      -3.112030    0.544940    0.987400
  C      -0.961700    0.619280    0.669400
  H      -0.788700    1.250430    1.544700
  H      -1.026180    1.295440   -0.186460
  C       0.226500   -0.314710    0.479990
  H       0.309440   -0.975140    1.348040
  H       0.039150   -0.966000   -0.378790
  C       1.543000    0.421180    0.269000
  H       1.711640    1.107770    1.102450
  H       1.466090    1.043740   -0.625290
  C       2.727580   -0.526860    0.137460
  H       2.588740   -1.203210   -0.705760
  H       3.661500    0.011690   -0.015970
  H       2.835190   -1.137410    1.034080
--
0 1
  C      -0.917420   -0.400410    6.342990
  O      -1.340040   -1.515590    6.145840
  O      -1.731120    0.658550    6.575580
  H      -2.631880    0.304170    6.535040
  C       0.522840    0.009250    6.360190
  H       1.148670   -0.860930    6.202040
  H       0.698880    0.743530    5.577070
  H       0.760150    0.478560    7.312000
units angstrom
no_reorient
symmetry c1
}

set {
scf_type DF
basis aug-cc-pvtz
freeze_core True
guess SAD
}
energy('sapt2+')
--------------------------------------------------------------------------

  //              Dimer HF             //
    Molecular point group: c1
  Charge       = 0
  Multiplicity = 1
  Basis Set: AUG-CC-PVTZ
    Blend: AUG-CC-PVTZ
  Basis Set: (AUG-CC-PVTZ AUX)
    Blend: AUG-CC-PVTZ-JKFIT
  @DF-RHF Final Energy:  -424.30964253272481
    Total Energy =                       -424.3096425327248653
  //            Monomer A HF           //
    Molecular point group: c1
  Multiplicity = 1
  Basis Set: AUG-CC-PVTZ
    Blend: AUG-CC-PVTZ
  Basis Set: (AUG-CC-PVTZ AUX)
    Blend: AUG-CC-PVTZ-JKFIT
  @DF-RHF Final Energy:  -196.40433478470771
    Total Energy =                       -196.4043347847077143
  //            Monomer B HF           //
    Molecular point group: c1

    Geometry (in Angstrom), charge = 0, multiplicity = 1:

       Center              X                  Y                   Z               Mass
    ------------   -----------------  -----------------  -----------------  -----------------
      Gh(C)          -2.004594370394    -0.002282331066    -2.318648290566    12.000000000000
      Gh(H)          -2.219964370394    -0.595132331066    -3.207548290566     1.007825032230
      Gh(H)          -1.955564370394    -0.685652331066    -1.471158290566     1.007825032230
      Gh(H)          -2.841274370394     0.677737668934    -2.162578290566     1.007825032230
      Gh(C)          -0.690944370394     0.752077668934    -2.480578290566    12.000000000000
      Gh(H)          -0.517944370394     1.383227668934    -1.605278290566     1.007825032230
      Gh(H)          -0.755424370394     1.428237668934    -3.336438290566     1.007825032230
      Gh(C)           0.497255629606    -0.181912331066    -2.669988290566    12.000000000000
      Gh(H)           0.580195629606    -0.842342331066    -1.801938290566     1.007825032230
      Gh(H)           0.309905629606    -0.833202331066    -3.528768290566     1.007825032230
      Gh(C)           1.813755629606     0.553977668934    -2.880978290566    12.000000000000
      Gh(H)           1.982395629606     1.240567668934    -2.047528290566     1.007825032230
      Gh(H)           1.736845629606     1.176537668934    -3.775268290566     1.007825032230
      Gh(C)           2.998335629606    -0.394062331066    -3.012518290566    12.000000000000
      Gh(H)           2.859495629606    -1.070412331066    -3.855738290566     1.007825032230
      Gh(H)           3.932255629606     0.144487668934    -3.165948290566     1.007825032230
      Gh(H)           3.105945629606    -1.004612331066    -2.115898290566     1.007825032230
         C           -0.646664370394    -0.267612331066     3.193011709434    12.000000000000
         O           -1.069284370394    -1.382792331066     2.995861709434    15.994914619570
         O           -1.460364370394     0.791347668934     3.425601709434    15.994914619570
         H           -2.361124370394     0.436967668934     3.385061709434     1.007825032230
         C            0.793595629606     0.142047668934     3.210211709434    12.000000000000
         H            1.419425629606    -0.728132331066     3.052061709434     1.007825032230
         H            0.969635629606     0.876327668934     2.427091709434     1.007825032230
         H            1.030905629606     0.611357668934     4.162021709434     1.007825032230

  Charge       = 0
  Multiplicity = 1
  Basis Set: AUG-CC-PVTZ
    Blend: AUG-CC-PVTZ
  Basis Set: (AUG-CC-PVTZ AUX)
    Blend: AUG-CC-PVTZ-JKFIT

    Orbital Energies [Eh]
    ---------------------

    Doubly Occupied:

       1A    -20.616060     2A    -20.552947     3A    -11.391202
       4A    -11.246314     5A     -1.467325     6A     -1.363214
       7A     -1.031283     8A     -0.823591     9A     -0.708469
      10A     -0.682460    11A     -0.652936    12A     -0.587108
      13A     -0.576022    14A     -0.563871    15A     -0.485792
      16A     -0.457508

  @DF-RHF Final Energy:  -227.90529292447204

   => Energetics <=

    Nuclear Repulsion Energy =            121.2397630685754706
    One-Electron Energy =                -551.8778979758916421
    Two-Electron Energy =                 202.7328419828441213
    Total Energy =                       -227.9052929244720360

  Dipole Moment: [D]
     X:     0.7912      Y:     1.8209      Z:     0.2981     Total:     2.0076

    SAPT Results
  --------------------------------------------------------------------------------------------------------
    Electrostatics                 -0.00593174 [mEh]      -0.00372223 [kcal/mol]      -0.01557379 [kJ/mol]
      Elst10,r                     -0.00214576 [mEh]      -0.00134649 [kcal/mol]      -0.00563370 [kJ/mol]
      Elst12,r                     -0.00378598 [mEh]      -0.00237574 [kcal/mol]      -0.00994009 [kJ/mol]

    Exchange                        0.00503812 [mEh]       0.00316147 [kcal/mol]       0.01322758 [kJ/mol]
      Exch10                        0.00414186 [mEh]       0.00259906 [kcal/mol]       0.01087445 [kJ/mol]
      Exch10(S^2)                   0.00414186 [mEh]       0.00259905 [kcal/mol]       0.01087444 [kJ/mol]
      Exch11(S^2)                  -0.00007372 [mEh]      -0.00004626 [kcal/mol]      -0.00019355 [kJ/mol]
      Exch12(S^2)                   0.00096998 [mEh]       0.00060867 [kcal/mol]       0.00254668 [kJ/mol]

    Induction                      -0.01290270 [mEh]      -0.00809656 [kcal/mol]      -0.03387603 [kJ/mol]
      Ind20,r                      -0.01725283 [mEh]      -0.01082632 [kcal/mol]      -0.04529731 [kJ/mol]
      Ind22                         0.00401597 [mEh]       0.00252006 [kcal/mol]       0.01054392 [kJ/mol]
      Exch-Ind20,r                  0.00042542 [mEh]       0.00026696 [kcal/mol]       0.00111695 [kJ/mol]
      Exch-Ind22                   -0.00009903 [mEh]      -0.00006214 [kcal/mol]      -0.00025999 [kJ/mol]
      delta HF,r (2)                0.00000777 [mEh]       0.00000488 [kcal/mol]       0.00002040 [kJ/mol]

    Dispersion                     -0.48674243 [mEh]      -0.30543549 [kcal/mol]      -1.27794208 [kJ/mol]
      Disp20                       -0.48926455 [mEh]      -0.30701814 [kcal/mol]      -1.28456391 [kJ/mol]
      Disp21                        0.08252537 [mEh]       0.05178545 [kcal/mol]       0.21667033 [kJ/mol]
      Disp22 (SDQ)                  0.00845758 [mEh]       0.00530721 [kcal/mol]       0.02220537 [kJ/mol]
      Disp22 (T)                   -0.08678942 [mEh]      -0.05446118 [kcal/mol]      -0.22786559 [kJ/mol]
      Est. Disp22 (T)              -0.08934416 [mEh]      -0.05606431 [kcal/mol]      -0.23457306 [kJ/mol]
      Exch-Disp20                   0.00088333 [mEh]       0.00055430 [kcal/mol]       0.00231918 [kJ/mol]

  Total HF                         -0.01482355 [mEh]      -0.00930191 [kcal/mol]      -0.03891921 [kJ/mol]
  Total SAPT0                      -0.50320477 [mEh]      -0.31576576 [kcal/mol]      -1.32116394 [kJ/mol]
  Total SAPT2                      -0.50217755 [mEh]      -0.31512117 [kcal/mol]      -1.31846696 [kJ/mol]
  Total SAPT2+                     -0.50053876 [mEh]      -0.31409281 [kcal/mol]      -1.31416432 [kJ/mol]

  Special recipe for scaled SAPT0 (see Manual):
    Electrostatics sSAPT0          -0.00214576 [mEh]      -0.00134649 [kcal/mol]      -0.00563370 [kJ/mol]
    Exchange sSAPT0                 0.00414186 [mEh]       0.00259906 [kcal/mol]       0.01087445 [kJ/mol]
    Induction sSAPT0               -0.01681964 [mEh]      -0.01055448 [kcal/mol]      -0.04415996 [kJ/mol]
    Dispersion sSAPT0              -0.48838122 [mEh]      -0.30646384 [kcal/mol]      -1.28224472 [kJ/mol]
  Total sSAPT0                     -0.50320477 [mEh]      -0.31576576 [kcal/mol]      -1.32116394 [kJ/mol]
  --------------------------------------------------------------------------------------------------------

*** Psi4 exiting successfully. Buy a developer a beer!
