                               Psi4 1.4a2.dev224

  ==> Input File <==

--------------------------------------------------------------------------
#Generated by lconvert.py for sapt job

memory 25 GB

molecule  {
0 1
  C      -2.275350   -0.135080    0.831330
  H      -2.490720   -0.727930   -0.057570
  H      -2.226320   -0.818450    1.678820
  H      -3.112030    0.544940    0.987400
  C      -0.961700    0.619280    0.669400
  H      -0.788700    1.250430    1.544700
  H      -1.026180    1.295440   -0.186460
  C       0.226500   -0.314710    0.479990
  H       0.309440   -0.975140    1.348040
  H       0.039150   -0.966000   -0.378790
  C       1.543000    0.421180    0.269000
  H       1.711640    1.107770    1.102450
  H       1.466090    1.043740   -0.625290
  C       2.727580   -0.526860    0.137460
  H       2.588740   -1.203210   -0.705760
  H       3.661500    0.011690   -0.015970
  H       2.835190   -1.137410    1.034080
--
0 1
  C      -0.638140   -0.327960    4.912800
  O      -1.060750   -1.443140    4.715660
  O      -1.451830    0.731000    5.145390
  H      -2.352590    0.376620    5.104860
  C       0.802130    0.081700    4.930010
  H       1.427950   -0.788480    4.771860
  H       0.978170    0.815980    4.146890
  H       1.039440    0.551010    5.881810
units angstrom
no_reorient
symmetry c1
}

set {
scf_type DF
basis aug-cc-pvtz
freeze_core True
guess SAD
}
energy('sapt2+')
--------------------------------------------------------------------------

  //              Dimer HF             //
    Molecular point group: c1
  Charge       = 0
  Multiplicity = 1
  Basis Set: AUG-CC-PVTZ
    Blend: AUG-CC-PVTZ
  Basis Set: (AUG-CC-PVTZ AUX)
    Blend: AUG-CC-PVTZ-JKFIT
  @DF-RHF Final Energy:  -424.30963879064956
    Total Energy =                       -424.3096387906496147
  //            Monomer A HF           //
    Molecular point group: c1
  Multiplicity = 1
  Basis Set: AUG-CC-PVTZ
    Blend: AUG-CC-PVTZ
  Basis Set: (AUG-CC-PVTZ AUX)
    Blend: AUG-CC-PVTZ-JKFIT
  @DF-RHF Final Energy:  -196.40434646598209
    Total Energy =                       -196.4043464659820870
  //            Monomer B HF           //
    Molecular point group: c1

    Geometry (in Angstrom), charge = 0, multiplicity = 1:

       Center              X                  Y                   Z               Mass
    ------------   -----------------  -----------------  -----------------  -----------------
      Gh(C)          -2.131477520434    -0.035197063256    -1.668901558598    12.000000000000
      Gh(H)          -2.346847520434    -0.628047063256    -2.557801558598     1.007825032230
      Gh(H)          -2.082447520434    -0.718567063256    -0.821411558598     1.007825032230
      Gh(H)          -2.968157520434     0.644822936744    -1.512831558598     1.007825032230
      Gh(C)          -0.817827520434     0.719162936744    -1.830831558598    12.000000000000
      Gh(H)          -0.644827520434     1.350312936744    -0.955531558598     1.007825032230
      Gh(H)          -0.882307520434     1.395322936744    -2.686691558598     1.007825032230
      Gh(C)           0.370372479566    -0.214827063256    -2.020241558598    12.000000000000
      Gh(H)           0.453312479566    -0.875257063256    -1.152191558598     1.007825032230
      Gh(H)           0.183022479566    -0.866117063256    -2.879021558598     1.007825032230
      Gh(C)           1.686872479566     0.521062936744    -2.231231558598    12.000000000000
      Gh(H)           1.855512479566     1.207652936744    -1.397781558598     1.007825032230
      Gh(H)           1.609962479566     1.143622936744    -3.125521558598     1.007825032230
      Gh(C)           2.871452479566    -0.426977063256    -2.362771558598    12.000000000000
      Gh(H)           2.732612479566    -1.103327063256    -3.205991558598     1.007825032230
      Gh(H)           3.805372479566     0.111572936744    -2.516201558598     1.007825032230
      Gh(H)           2.979062479566    -1.037527063256    -1.466151558598     1.007825032230
         C           -0.494267520434    -0.228077063256     2.412568441402    12.000000000000
         O           -0.916877520434    -1.343257063256     2.215428441402    15.994914619570
         O           -1.307957520434     0.830882936744     2.645158441402    15.994914619570
         H           -2.208717520434     0.476502936744     2.604628441402     1.007825032230
         C            0.946002479566     0.181582936744     2.429778441402    12.000000000000
         H            1.571822479566    -0.688597063256     2.271628441402     1.007825032230
         H            1.122042479566     0.915862936744     1.646658441402     1.007825032230
         H            1.183312479566     0.650892936744     3.381578441402     1.007825032230

  Charge       = 0
  Multiplicity = 1
  Basis Set: AUG-CC-PVTZ
    Blend: AUG-CC-PVTZ
  Basis Set: (AUG-CC-PVTZ AUX)
    Blend: AUG-CC-PVTZ-JKFIT

    Orbital Energies [Eh]
    ---------------------

    Doubly Occupied:

       1A    -20.615984     2A    -20.552893     3A    -11.391156
       4A    -11.246307     5A     -1.467286     6A     -1.363176
       7A     -1.031263     8A     -0.823559     9A     -0.708439
      10A     -0.682436    11A     -0.652922    12A     -0.587083
      13A     -0.576007    14A     -0.563863    15A     -0.485774
      16A     -0.457483

  @DF-RHF Final Energy:  -227.90539890152792

   => Energetics <=

    Nuclear Repulsion Energy =            121.2399280203376719
    One-Electron Energy =                -551.8793795046328796
    Two-Electron Energy =                 202.7340525827672764
    Total Energy =                       -227.9053989015279171

  Dipole Moment: [D]
     X:     0.7907      Y:     1.8207      Z:     0.2992     Total:     2.0074

    SAPT Results
  --------------------------------------------------------------------------------------------------------
    Electrostatics                 -0.30786580 [mEh]      -0.19318871 [kcal/mol]      -0.80830155 [kJ/mol]
      Elst10,r                     -0.27312138 [mEh]      -0.17138625 [kcal/mol]      -0.71708007 [kJ/mol]
      Elst12,r                     -0.03474442 [mEh]      -0.02180246 [kcal/mol]      -0.09122147 [kJ/mol]

    Exchange                        0.59967373 [mEh]       0.37630095 [kcal/mol]       1.57444317 [kJ/mol]
      Exch10                        0.52054383 [mEh]       0.32664618 [kcal/mol]       1.36668763 [kJ/mol]
      Exch10(S^2)                   0.52048491 [mEh]       0.32660921 [kcal/mol]       1.36653294 [kJ/mol]
      Exch11(S^2)                   0.00424123 [mEh]       0.00266142 [kcal/mol]       0.01113536 [kJ/mol]
      Exch12(S^2)                   0.07488867 [mEh]       0.04699335 [kcal/mol]       0.19662018 [kJ/mol]

    Induction                      -0.13589840 [mEh]      -0.08527753 [kcal/mol]      -0.35680119 [kJ/mol]
      Ind20,r                      -0.18692395 [mEh]      -0.11729655 [kcal/mol]      -0.49076876 [kJ/mol]
      Ind22                         0.00838376 [mEh]       0.00526089 [kcal/mol]       0.02201157 [kJ/mol]
      Exch-Ind20,r                  0.07662157 [mEh]       0.04808076 [kcal/mol]       0.20116989 [kJ/mol]
      Exch-Ind22                   -0.00343657 [mEh]      -0.00215648 [kcal/mol]      -0.00902271 [kJ/mol]
      delta HF,r (2)               -0.03054321 [mEh]      -0.01916615 [kcal/mol]      -0.08019118 [kJ/mol]

    Dispersion                     -2.77696387 [mEh]      -1.74257114 [kcal/mol]      -7.29091764 [kJ/mol]
      Disp20                       -2.75866755 [mEh]      -1.73109003 [kcal/mol]      -7.24288067 [kJ/mol]
      Disp21                        0.35776723 [mEh]       0.22450233 [kcal/mol]       0.93931774 [kJ/mol]
      Disp22 (SDQ)                  0.04193054 [mEh]       0.02631181 [kcal/mol]       0.11008862 [kJ/mol]
      Disp22 (T)                   -0.46560936 [mEh]      -0.29217429 [kcal/mol]      -1.22245721 [kJ/mol]
      Est. Disp22 (T)              -0.49611055 [mEh]      -0.31131407 [kcal/mol]      -1.30253808 [kJ/mol]
      Exch-Disp20                   0.07811646 [mEh]       0.04901882 [kcal/mol]       0.20509474 [kJ/mol]

  Total HF                          0.10657686 [mEh]       0.06687799 [kcal/mol]       0.27981751 [kJ/mol]
  Total SAPT0                      -2.57397423 [mEh]      -1.61519322 [kcal/mol]      -6.75796842 [kJ/mol]
  Total SAPT2                      -2.52464156 [mEh]      -1.58423650 [kcal/mol]      -6.62844550 [kJ/mol]
  Total SAPT2+                     -2.62105434 [mEh]      -1.64473643 [kcal/mol]      -6.88157721 [kJ/mol]

  Special recipe for scaled SAPT0 (see Manual):
    Electrostatics sSAPT0          -0.27312138 [mEh]      -0.17138625 [kcal/mol]      -0.71708007 [kJ/mol]
    Exchange sSAPT0                 0.52054383 [mEh]       0.32664618 [kcal/mol]       1.36668763 [kJ/mol]
    Induction sSAPT0               -0.14081957 [mEh]      -0.08836561 [kcal/mol]      -0.36972172 [kJ/mol]
    Dispersion sSAPT0              -2.68052456 [mEh]      -1.68205456 [kcal/mol]      -7.03771627 [kJ/mol]
  Total sSAPT0                     -2.57392168 [mEh]      -1.61516024 [kcal/mol]      -6.75783044 [kJ/mol]
  --------------------------------------------------------------------------------------------------------

*** Psi4 exiting successfully. Buy a developer a beer!
