                               Psi4 1.4a2.dev224

  ==> Input File <==

--------------------------------------------------------------------------
#Generated by lconvert.py for sapt job

memory 25 GB

molecule  {
0 1
  C      -2.275350   -0.135080    0.831330
  H      -2.490720   -0.727930   -0.057570
  H      -2.226320   -0.818450    1.678820
  H      -3.112030    0.544940    0.987400
  C      -0.961700    0.619280    0.669400
  H      -0.788700    1.250430    1.544700
  H      -1.026180    1.295440   -0.186460
  C       0.226500   -0.314710    0.479990
  H       0.309440   -0.975140    1.348040
  H       0.039150   -0.966000   -0.378790
  C       1.543000    0.421180    0.269000
  H       1.711640    1.107770    1.102450
  H       1.466090    1.043740   -0.625290
  C       2.727580   -0.526860    0.137460
  H       2.588740   -1.203210   -0.705760
  H       3.661500    0.011690   -0.015970
  H       2.835190   -1.137410    1.034080
--
0 1
  C      -0.777780   -0.364190    5.627900
  O      -1.200390   -1.479370    5.430750
  O      -1.591470    0.694780    5.860490
  H      -2.492230    0.340400    5.819950
  C       0.662490    0.045480    5.645100
  H       1.288310   -0.824700    5.486950
  H       0.838520    0.779750    4.861980
  H       0.899800    0.514780    6.596900
units angstrom
no_reorient
symmetry c1
}

set {
scf_type DF
basis aug-cc-pvtz
freeze_core True
guess SAD
}
energy('sapt2+')
--------------------------------------------------------------------------

  //              Dimer HF             //
    Molecular point group: c1
  Charge       = 0
  Multiplicity = 1
  Basis Set: AUG-CC-PVTZ
    Blend: AUG-CC-PVTZ
  Basis Set: (AUG-CC-PVTZ AUX)
    Blend: AUG-CC-PVTZ-JKFIT
  @DF-RHF Final Energy:  -424.30970819167385
    Total Energy =                       -424.3097081916738489
  //            Monomer A HF           //
    Molecular point group: c1
  Multiplicity = 1
  Basis Set: AUG-CC-PVTZ
    Blend: AUG-CC-PVTZ
  Basis Set: (AUG-CC-PVTZ AUX)
    Blend: AUG-CC-PVTZ-JKFIT
  @DF-RHF Final Energy:  -196.40433890578316
    Total Energy =                       -196.4043389057831632
  //            Monomer B HF           //
    Molecular point group: c1

    Geometry (in Angstrom), charge = 0, multiplicity = 1:

       Center              X                  Y                   Z               Mass
    ------------   -----------------  -----------------  -----------------  -----------------
      Gh(C)          -2.068037648387    -0.018739697161    -1.993775945930    12.000000000000
      Gh(H)          -2.283407648387    -0.611589697161    -2.882675945930     1.007825032230
      Gh(H)          -2.019007648387    -0.702109697161    -1.146285945930     1.007825032230
      Gh(H)          -2.904717648387     0.661280302839    -1.837705945930     1.007825032230
      Gh(C)          -0.754387648387     0.735620302839    -2.155705945930    12.000000000000
      Gh(H)          -0.581387648387     1.366770302839    -1.280405945930     1.007825032230
      Gh(H)          -0.818867648387     1.411780302839    -3.011565945930     1.007825032230
      Gh(C)           0.433812351613    -0.198369697161    -2.345115945930    12.000000000000
      Gh(H)           0.516752351613    -0.858799697161    -1.477065945930     1.007825032230
      Gh(H)           0.246462351613    -0.849659697161    -3.203895945930     1.007825032230
      Gh(C)           1.750312351613     0.537520302839    -2.556105945930    12.000000000000
      Gh(H)           1.918952351613     1.224110302839    -1.722655945930     1.007825032230
      Gh(H)           1.673402351613     1.160080302839    -3.450395945930     1.007825032230
      Gh(C)           2.934892351613    -0.410519697161    -2.687645945930    12.000000000000
      Gh(H)           2.796052351613    -1.086869697161    -3.530865945930     1.007825032230
      Gh(H)           3.868812351613     0.128030302839    -2.841075945930     1.007825032230
      Gh(H)           3.042502351613    -1.021069697161    -1.791025945930     1.007825032230
         C           -0.570467648387    -0.247849697161     2.802794054070    12.000000000000
         O           -0.993077648387    -1.363029697161     2.605644054070    15.994914619570
         O           -1.384157648387     0.811120302839     3.035384054070    15.994914619570
         H           -2.284917648387     0.456740302839     2.994844054070     1.007825032230
         C            0.869802351613     0.161820302839     2.819994054070    12.000000000000
         H            1.495622351613    -0.708359697161     2.661844054070     1.007825032230
         H            1.045832351613     0.896090302839     2.036874054070     1.007825032230
         H            1.107112351613     0.631120302839     3.771794054070     1.007825032230

  Charge       = 0
  Multiplicity = 1
  Basis Set: AUG-CC-PVTZ
    Blend: AUG-CC-PVTZ
  Basis Set: (AUG-CC-PVTZ AUX)
    Blend: AUG-CC-PVTZ-JKFIT

    Orbital Energies [Eh]
    ---------------------

    Doubly Occupied:

       1A    -20.616030     2A    -20.552927     3A    -11.391184
       4A    -11.246309     5A     -1.467309     6A     -1.363201
       7A     -1.031275     8A     -0.823578     9A     -0.708458
      10A     -0.682450    11A     -0.652931    12A     -0.587099
      13A     -0.576015    14A     -0.563870    15A     -0.485788
      16A     -0.457498

  @DF-RHF Final Energy:  -227.90533143620985

   => Energetics <=

    Nuclear Repulsion Energy =            121.2396989862093193
    One-Electron Energy =                -551.8782044279901129
    Two-Electron Energy =                 202.7331740055709588
    Total Energy =                       -227.9053314362098490

  Dipole Moment: [D]
     X:     0.7909      Y:     1.8208      Z:     0.2989     Total:     2.0075

    SAPT Results
  --------------------------------------------------------------------------------------------------------
    Electrostatics                 -0.04982437 [mEh]      -0.03126526 [kcal/mol]      -0.13081386 [kJ/mol]
      Elst10,r                     -0.04373096 [mEh]      -0.02744159 [kcal/mol]      -0.11481563 [kJ/mol]
      Elst12,r                     -0.00609341 [mEh]      -0.00382367 [kcal/mol]      -0.01599824 [kJ/mol]

    Exchange                        0.05670794 [mEh]       0.03558477 [kcal/mol]       0.14888668 [kJ/mol]
      Exch10                        0.04790044 [mEh]       0.03005798 [kcal/mol]       0.12576259 [kJ/mol]
      Exch10(S^2)                   0.04789993 [mEh]       0.03005766 [kcal/mol]       0.12576126 [kJ/mol]
      Exch11(S^2)                  -0.00020776 [mEh]      -0.00013037 [kcal/mol]      -0.00054546 [kJ/mol]
      Exch12(S^2)                   0.00901526 [mEh]       0.00565716 [kcal/mol]       0.02366955 [kJ/mol]

    Induction                      -0.03499615 [mEh]      -0.02196042 [kcal/mol]      -0.09188239 [kJ/mol]
      Ind20,r                      -0.04560003 [mEh]      -0.02861445 [kcal/mol]      -0.11972287 [kJ/mol]
      Ind22                         0.00804374 [mEh]       0.00504753 [kcal/mol]       0.02111885 [kJ/mol]
      Exch-Ind20,r                  0.00578659 [mEh]       0.00363114 [kcal/mol]       0.01519268 [kJ/mol]
      Exch-Ind22                   -0.00102074 [mEh]      -0.00064052 [kcal/mol]      -0.00267996 [kJ/mol]
      delta HF,r (2)               -0.00220571 [mEh]      -0.00138410 [kcal/mol]      -0.00579109 [kJ/mol]

    Dispersion                     -1.09443848 [mEh]      -0.68677051 [kcal/mol]      -2.87344783 [kJ/mol]
      Disp20                       -1.08816090 [mEh]      -0.68283127 [kcal/mol]      -2.85696604 [kJ/mol]
      Disp21                        0.16520124 [mEh]       0.10366535 [kcal/mol]       0.43373580 [kJ/mol]
      Disp22 (SDQ)                  0.01775499 [mEh]       0.01114143 [kcal/mol]       0.04661572 [kJ/mol]
      Disp22 (T)                   -0.18975204 [mEh]      -0.11907120 [kcal/mol]      -0.49819391 [kJ/mol]
      Est. Disp22 (T)              -0.19788818 [mEh]      -0.12417670 [kcal/mol]      -0.51955533 [kJ/mol]
      Exch-Disp20                   0.00865436 [mEh]       0.00543069 [kcal/mol]       0.02272202 [kJ/mol]

  Total HF                         -0.03784968 [mEh]      -0.02375103 [kcal/mol]      -0.09937432 [kJ/mol]
  Total SAPT0                      -1.11735622 [mEh]      -0.70115161 [kcal/mol]      -2.93361834 [kJ/mol]
  Total SAPT2                      -1.10761912 [mEh]      -0.69504149 [kcal/mol]      -2.90805360 [kJ/mol]
  Total SAPT2+                     -1.12255106 [mEh]      -0.70441143 [kcal/mol]      -2.94725740 [kJ/mol]

  Special recipe for scaled SAPT0 (see Manual):
    Electrostatics sSAPT0          -0.04373096 [mEh]      -0.02744159 [kcal/mol]      -0.11481563 [kJ/mol]
    Exchange sSAPT0                 0.04790044 [mEh]       0.03005798 [kcal/mol]       0.12576259 [kJ/mol]
    Induction sSAPT0               -0.04201897 [mEh]      -0.02636730 [kcal/mol]      -0.11032080 [kJ/mol]
    Dispersion sSAPT0              -1.07950626 [mEh]      -0.67740041 [kcal/mol]      -2.83424330 [kJ/mol]
  Total sSAPT0                     -1.11735576 [mEh]      -0.70115132 [kcal/mol]      -2.93361714 [kJ/mol]
  --------------------------------------------------------------------------------------------------------

*** Psi4 exiting successfully. Buy a developer a beer!
