                               Psi4 1.4a2.dev224

  ==> Input File <==

--------------------------------------------------------------------------
#Generated by lconvert.py for sapt job

memory 25 GB

molecule  {
0 1
  C      -2.587780   -0.323110    0.469460
  H      -2.610390   -0.876370   -0.469620
  H      -2.659740   -1.051890    1.277710
  H      -3.476030    0.305620    0.508960
  C      -1.309560    0.497390    0.585060
  H      -1.317250    1.083260    1.506340
  H      -1.262380    1.215570   -0.236780
  C      -0.056830   -0.368260    0.558440
  H      -0.086180   -1.073360    1.395870
  H      -0.053810   -0.976840   -0.351470
  C       1.231600    0.440070    0.632030
  H       1.213280    1.053560    1.534590
  H       1.266300    1.131380   -0.213110
  C       2.472570   -0.443140    0.619220
  H       2.520720   -1.035260   -0.294900
  H       3.387730    0.144090    0.683910
  H       2.459300   -1.139360    1.458620
--
0 1
  C       0.060920    0.241370    4.998930
  O       0.087840    1.426440    4.707090
  N       1.193510   -0.510510    5.101750
  H       2.064450   -0.087930    4.833090
  H       1.154570   -1.502390    5.233180
  C      -1.229300   -0.497570    5.263390
  H      -1.082050   -1.458290    5.750510
  H      -1.735520   -0.655880    4.312570
  H      -1.867240    0.129670    5.878660
units angstrom
no_reorient
symmetry c1
}

set {
scf_type DF
basis aug-cc-pvtz
freeze_core True
guess SAD
}
energy('sapt2+')
--------------------------------------------------------------------------

  //              Dimer HF             //
    Molecular point group: c1
  Charge       = 0
  Multiplicity = 1
  Basis Set: AUG-CC-PVTZ
    Blend: AUG-CC-PVTZ
  Basis Set: (AUG-CC-PVTZ AUX)
    Blend: AUG-CC-PVTZ-JKFIT
  @DF-RHF Final Energy:  -404.46773812397271
    Total Energy =                       -404.4677381239727083
  //            Monomer A HF           //
    Molecular point group: c1
  Multiplicity = 1
  Basis Set: AUG-CC-PVTZ
    Blend: AUG-CC-PVTZ
  Basis Set: (AUG-CC-PVTZ AUX)
    Blend: AUG-CC-PVTZ-JKFIT
  @DF-RHF Final Energy:  -196.40431063759297
    Total Energy =                       -196.4043106375929710
  //            Monomer B HF           //
    Molecular point group: c1

    Geometry (in Angstrom), charge = 0, multiplicity = 1:

       Center              X                  Y                   Z               Mass
    ------------   -----------------  -----------------  -----------------  -----------------
      Gh(C)          -2.580128819261    -0.364260754785    -2.102875021303    12.000000000000
      Gh(H)          -2.602738819261    -0.917520754785    -3.041955021303     1.007825032230
      Gh(H)          -2.652088819261    -1.093040754785    -1.294625021303     1.007825032230
      Gh(H)          -3.468378819261     0.264469245215    -2.063375021303     1.007825032230
      Gh(C)          -1.301908819261     0.456239245215    -1.987275021303    12.000000000000
      Gh(H)          -1.309598819261     1.042109245215    -1.065995021303     1.007825032230
      Gh(H)          -1.254728819261     1.174419245215    -2.809115021303     1.007825032230
      Gh(C)          -0.049178819261    -0.409410754785    -2.013895021303    12.000000000000
      Gh(H)          -0.078528819261    -1.114510754785    -1.176465021303     1.007825032230
      Gh(H)          -0.046158819261    -1.017990754785    -2.923805021303     1.007825032230
      Gh(C)           1.239251180739     0.398919245215    -1.940305021303    12.000000000000
      Gh(H)           1.220931180739     1.012409245215    -1.037745021303     1.007825032230
      Gh(H)           1.273951180739     1.090229245215    -2.785445021303     1.007825032230
      Gh(C)           2.480221180739    -0.484290754785    -1.953115021303    12.000000000000
      Gh(H)           2.528371180739    -1.076410754785    -2.867235021303     1.007825032230
      Gh(H)           3.395381180739     0.102939245215    -1.888425021303     1.007825032230
      Gh(H)           2.466951180739    -1.180510754785    -1.113715021303     1.007825032230
         C            0.068571180739     0.200219245215     2.426594978697    12.000000000000
         O            0.095491180739     1.385289245215     2.134754978697    15.994914619570
         N            1.201161180739    -0.551660754785     2.529414978697    14.003074004430
         H            2.072101180739    -0.129080754785     2.260754978697     1.007825032230
         H            1.162221180739    -1.543540754785     2.660844978697     1.007825032230
         C           -1.221648819261    -0.538720754785     2.691054978697    12.000000000000
         H           -1.074398819261    -1.499440754785     3.178174978697     1.007825032230
         H           -1.727868819261    -0.697030754785     1.740234978697     1.007825032230
         H           -1.859588819261     0.088519245215     3.306324978697     1.007825032230

  Charge       = 0
  Multiplicity = 1
  Basis Set: AUG-CC-PVTZ
    Blend: AUG-CC-PVTZ
  Basis Set: (AUG-CC-PVTZ AUX)
    Blend: AUG-CC-PVTZ-JKFIT

    Orbital Energies [Eh]
    ---------------------

    Doubly Occupied:

       1A    -20.516762     2A    -15.587519     3A    -11.353975
       4A    -11.238077     5A     -1.378076     6A     -1.214496
       7A     -1.007198     8A     -0.800936     9A     -0.728618
      10A     -0.665300    11A     -0.616597    12A     -0.586573
      13A     -0.563480    14A     -0.525271    15A     -0.425522
      16A     -0.415974

  @DF-RHF Final Energy:  -208.06321986365018

   => Energetics <=

    Nuclear Repulsion Energy =            121.8658786055157179
    One-Electron Energy =                -524.6094477156381117
    Two-Electron Energy =                 194.6803492464722183
    Total Energy =                       -208.0632198636501755

  Dipole Moment: [D]
     X:     0.4513      Y:    -4.1746      Z:     0.6221     Total:     4.2447

    SAPT Results
  --------------------------------------------------------------------------------------------------------
    Electrostatics                 -0.39926929 [mEh]      -0.25054526 [kcal/mol]      -1.04828138 [kJ/mol]
      Elst10,r                     -0.38197576 [mEh]      -0.23969341 [kcal/mol]      -1.00287723 [kJ/mol]
      Elst12,r                     -0.01729353 [mEh]      -0.01085185 [kcal/mol]      -0.04540415 [kJ/mol]

    Exchange                        0.56042380 [mEh]       0.35167124 [kcal/mol]       1.47139248 [kJ/mol]
      Exch10                        0.47237887 [mEh]       0.29642222 [kcal/mol]       1.24023055 [kJ/mol]
      Exch10(S^2)                   0.47236048 [mEh]       0.29641067 [kcal/mol]       1.24018226 [kJ/mol]
      Exch11(S^2)                   0.00103279 [mEh]       0.00064808 [kcal/mol]       0.00271158 [kJ/mol]
      Exch12(S^2)                   0.08701214 [mEh]       0.05460094 [kcal/mol]       0.22845035 [kJ/mol]

    Induction                      -0.27597294 [mEh]      -0.17317564 [kcal/mol]      -0.72456686 [kJ/mol]
      Ind20,r                      -0.33028492 [mEh]      -0.20725692 [kcal/mol]      -0.86716294 [kJ/mol]
      Ind22                         0.02733298 [mEh]       0.01715171 [kcal/mol]       0.07176274 [kJ/mol]
      Exch-Ind20,r                  0.06380330 [mEh]       0.04003718 [kcal/mol]       0.16751555 [kJ/mol]
      Exch-Ind22                   -0.00528009 [mEh]      -0.00331331 [kcal/mol]      -0.01386288 [kJ/mol]
      delta HF,r (2)               -0.03154422 [mEh]      -0.01979430 [kcal/mol]      -0.08281934 [kJ/mol]

    Dispersion                     -2.81754390 [mEh]      -1.76803549 [kcal/mol]      -7.39746048 [kJ/mol]
      Disp20                       -2.78637180 [mEh]      -1.74847470 [kcal/mol]      -7.31561815 [kJ/mol]
      Disp21                        0.36124344 [mEh]       0.22668368 [kcal/mol]       0.94844451 [kJ/mol]
      Disp22 (SDQ)                  0.04403100 [mEh]       0.02762987 [kcal/mol]       0.11560338 [kJ/mol]
      Disp22 (T)                   -0.48351501 [mEh]      -0.30341025 [kcal/mol]      -1.26946849 [kJ/mol]
      Est. Disp22 (T)              -0.51559671 [mEh]      -0.32354182 [kcal/mol]      -1.35369897 [kJ/mol]
      Exch-Disp20                   0.07915017 [mEh]       0.04966748 [kcal/mol]       0.20780875 [kJ/mol]

  Total HF                         -0.20762273 [mEh]      -0.13028523 [kcal/mol]      -0.54511340 [kJ/mol]
  Total SAPT0                      -2.91484436 [mEh]      -1.82909245 [kcal/mol]      -7.65292281 [kJ/mol]
  Total SAPT2                      -2.82204006 [mEh]      -1.77085688 [kcal/mol]      -7.40926517 [kJ/mol]
  Total SAPT2+                     -2.93236233 [mEh]      -1.84008514 [kcal/mol]      -7.69891625 [kJ/mol]

  Special recipe for scaled SAPT0 (see Manual):
    Electrostatics sSAPT0          -0.38197576 [mEh]      -0.23969341 [kcal/mol]      -1.00287723 [kJ/mol]
    Exchange sSAPT0                 0.47237887 [mEh]       0.29642222 [kcal/mol]       1.24023055 [kJ/mol]
    Induction sSAPT0               -0.29801838 [mEh]      -0.18700936 [kcal/mol]      -0.78244716 [kJ/mol]
    Dispersion sSAPT0              -2.70721238 [mEh]      -1.69880142 [kcal/mol]      -7.10778513 [kJ/mol]
  Total sSAPT0                     -2.91482766 [mEh]      -1.82908197 [kcal/mol]      -7.65287897 [kJ/mol]
  --------------------------------------------------------------------------------------------------------

*** Psi4 exiting successfully. Buy a developer a beer!
