                               Psi4 1.4a2.dev224

  ==> Input File <==

--------------------------------------------------------------------------
#Generated by lconvert.py for sapt job

memory 50 GB

molecule  {
0 1
  C      -2.587780   -0.323110    0.469460
  H      -2.610390   -0.876370   -0.469620
  H      -2.659740   -1.051890    1.277710
  H      -3.476030    0.305620    0.508960
  C      -1.309560    0.497390    0.585060
  H      -1.317250    1.083260    1.506340
  H      -1.262380    1.215570   -0.236780
  C      -0.056830   -0.368260    0.558440
  H      -0.086180   -1.073360    1.395870
  H      -0.053810   -0.976840   -0.351470
  C       1.231600    0.440070    0.632030
  H       1.213280    1.053560    1.534590
  H       1.266300    1.131380   -0.213110
  C       2.472570   -0.443140    0.619220
  H       2.520720   -1.035260   -0.294900
  H       3.387730    0.144090    0.683910
  H       2.459300   -1.139360    1.458620
--
0 1
  C       0.096460    0.317370    6.670270
  O       0.123370    1.502450    6.378430
  N       1.229040   -0.434510    6.773090
  H       2.099980   -0.011930    6.504430
  H       1.190100   -1.426390    6.904520
  C      -1.193760   -0.421570    6.934730
  H      -1.046510   -1.382290    7.421850
  H      -1.699990   -0.579880    5.983910
  H      -1.831700    0.205670    7.550000
units angstrom
no_reorient
symmetry c1
}

set {
scf_type DF
basis aug-cc-pvtz
freeze_core True
guess SAD
}
energy('sapt2+')
--------------------------------------------------------------------------

  //              Dimer HF             //
    Molecular point group: c1
  Charge       = 0
  Multiplicity = 1
  Basis Set: AUG-CC-PVTZ
    Blend: AUG-CC-PVTZ
  Basis Set: (AUG-CC-PVTZ AUX)
    Blend: AUG-CC-PVTZ-JKFIT
  @DF-RHF Final Energy:  -404.46752905980674
    Total Energy =                       -404.4675290598067932
  //            Monomer A HF           //
    Molecular point group: c1
  Multiplicity = 1
  Basis Set: AUG-CC-PVTZ
    Blend: AUG-CC-PVTZ
  Basis Set: (AUG-CC-PVTZ AUX)
    Blend: AUG-CC-PVTZ-JKFIT
  @DF-RHF Final Energy:  -196.40429793479217
    Total Energy =                       -196.4042979347921687
  //            Monomer B HF           //
    Molecular point group: c1

    Geometry (in Angstrom), charge = 0, multiplicity = 1:

       Center              X                  Y                   Z               Mass
    ------------   -----------------  -----------------  -----------------  -----------------
      Gh(C)          -2.596126932465    -0.398478293825    -2.855336903618    12.000000000000
      Gh(H)          -2.618736932465    -0.951738293825    -3.794416903618     1.007825032230
      Gh(H)          -2.668086932465    -1.127258293825    -2.047086903618     1.007825032230
      Gh(H)          -3.484376932465     0.230251706175    -2.815836903618     1.007825032230
      Gh(C)          -1.317906932465     0.422021706175    -2.739736903618    12.000000000000
      Gh(H)          -1.325596932465     1.007891706175    -1.818456903618     1.007825032230
      Gh(H)          -1.270726932465     1.140201706175    -3.561576903618     1.007825032230
      Gh(C)          -0.065176932465    -0.443628293825    -2.766356903618    12.000000000000
      Gh(H)          -0.094526932465    -1.148728293825    -1.928926903618     1.007825032230
      Gh(H)          -0.062156932465    -1.052208293825    -3.676266903618     1.007825032230
      Gh(C)           1.223253067535     0.364701706175    -2.692766903618    12.000000000000
      Gh(H)           1.204933067535     0.978191706175    -1.790206903618     1.007825032230
      Gh(H)           1.257953067535     1.056011706175    -3.537906903618     1.007825032230
      Gh(C)           2.464223067535    -0.518508293825    -2.705576903618    12.000000000000
      Gh(H)           2.512373067535    -1.110628293825    -3.619696903618     1.007825032230
      Gh(H)           3.379383067535     0.068721706175    -2.640886903618     1.007825032230
      Gh(H)           2.450953067535    -1.214728293825    -1.866176903618     1.007825032230
         C            0.088113067535     0.242001706175     3.345473096382    12.000000000000
         O            0.115023067535     1.427081706175     3.053633096382    15.994914619570
         N            1.220693067535    -0.509878293825     3.448293096382    14.003074004430
         H            2.091633067535    -0.087298293825     3.179633096382     1.007825032230
         H            1.181753067535    -1.501758293825     3.579723096382     1.007825032230
         C           -1.202106932465    -0.496938293825     3.609933096382    12.000000000000
         H           -1.054856932465    -1.457658293825     4.097053096382     1.007825032230
         H           -1.708336932465    -0.655248293825     2.659113096382     1.007825032230
         H           -1.840046932465     0.130301706175     4.225203096382     1.007825032230

  Charge       = 0
  Multiplicity = 1
  Basis Set: AUG-CC-PVTZ
    Blend: AUG-CC-PVTZ
  Basis Set: (AUG-CC-PVTZ AUX)
    Blend: AUG-CC-PVTZ-JKFIT

    Orbital Energies [Eh]
    ---------------------

    Doubly Occupied:

       1A    -20.516818     2A    -15.587539     3A    -11.354005
       4A    -11.238077     5A     -1.378100     6A     -1.214518
       7A     -1.007207     8A     -0.800952     9A     -0.728634
      10A     -0.665316    11A     -0.616602    12A     -0.586590
      13A     -0.563488    14A     -0.525277    15A     -0.425541
      16A     -0.415982

  @DF-RHF Final Energy:  -208.06313511403749

   => Energetics <=

    Nuclear Repulsion Energy =            121.8657908515689599
    One-Electron Energy =                -524.6085595406804032
    Two-Electron Energy =                 194.6796335750739786
    Total Energy =                       -208.0631351140374932

  Dipole Moment: [D]
     X:     0.4512      Y:    -4.1760      Z:     0.6217     Total:     4.2461

    SAPT Results
  --------------------------------------------------------------------------------------------------------
    Electrostatics                 -0.04976824 [mEh]      -0.03123004 [kcal/mol]      -0.13066649 [kJ/mol]
      Elst10,r                     -0.05819707 [mEh]      -0.03651921 [kcal/mol]      -0.15279639 [kJ/mol]
      Elst12,r                      0.00842883 [mEh]       0.00528917 [kcal/mol]       0.02212990 [kJ/mol]

    Exchange                        0.00192369 [mEh]       0.00120713 [kcal/mol]       0.00505065 [kJ/mol]
      Exch10                        0.00146129 [mEh]       0.00091697 [kcal/mol]       0.00383661 [kJ/mol]
      Exch10(S^2)                   0.00146129 [mEh]       0.00091697 [kcal/mol]       0.00383662 [kJ/mol]
      Exch11(S^2)                  -0.00005751 [mEh]      -0.00003609 [kcal/mol]      -0.00015099 [kJ/mol]
      Exch12(S^2)                   0.00051991 [mEh]       0.00032625 [kcal/mol]       0.00136503 [kJ/mol]

    Induction                      -0.03256707 [mEh]      -0.02043614 [kcal/mol]      -0.08550482 [kJ/mol]
      Ind20,r                      -0.03932514 [mEh]      -0.02467690 [kcal/mol]      -0.10324814 [kJ/mol]
      Ind22                         0.00673085 [mEh]       0.00422367 [kcal/mol]       0.01767185 [kJ/mol]
      Exch-Ind20,r                  0.00013276 [mEh]       0.00008331 [kcal/mol]       0.00034856 [kJ/mol]
      Exch-Ind22                   -0.00002272 [mEh]      -0.00001426 [kcal/mol]      -0.00005966 [kJ/mol]
      delta HF,r (2)               -0.00008282 [mEh]      -0.00005197 [kcal/mol]      -0.00021743 [kJ/mol]

    Dispersion                     -0.39410895 [mEh]      -0.24730710 [kcal/mol]      -1.03473291 [kJ/mol]
      Disp20                       -0.39716503 [mEh]      -0.24922482 [kcal/mol]      -1.04275663 [kJ/mol]
      Disp21                        0.07083773 [mEh]       0.04445135 [kcal/mol]       0.18598444 [kJ/mol]
      Disp22 (SDQ)                  0.00647807 [mEh]       0.00406505 [kcal/mol]       0.01700817 [kJ/mol]
      Disp22 (T)                   -0.07276266 [mEh]      -0.04565926 [kcal/mol]      -0.19103835 [kJ/mol]
      Est. Disp22 (T)              -0.07465270 [mEh]      -0.04684528 [kcal/mol]      -0.19600064 [kJ/mol]
      Exch-Disp20                   0.00039298 [mEh]       0.00024660 [kcal/mol]       0.00103176 [kJ/mol]

  Total HF                         -0.09601098 [mEh]      -0.06024780 [kcal/mol]      -0.25207679 [kJ/mol]
  Total SAPT0                      -0.49278303 [mEh]      -0.30922602 [kcal/mol]      -1.29380166 [kJ/mol]
  Total SAPT2                      -0.47718366 [mEh]      -0.29943727 [kcal/mol]      -1.25284553 [kJ/mol]
  Total SAPT2+                     -0.47452057 [mEh]      -0.29776615 [kcal/mol]      -1.24585358 [kJ/mol]

  Special recipe for scaled SAPT0 (see Manual):
    Electrostatics sSAPT0          -0.05819707 [mEh]      -0.03651921 [kcal/mol]      -0.15279639 [kJ/mol]
    Exchange sSAPT0                 0.00146129 [mEh]       0.00091697 [kcal/mol]       0.00383661 [kJ/mol]
    Induction sSAPT0               -0.03927520 [mEh]      -0.02464556 [kcal/mol]      -0.10311701 [kJ/mol]
    Dispersion sSAPT0              -0.39677205 [mEh]      -0.24897822 [kcal/mol]      -1.04172487 [kJ/mol]
  Total sSAPT0                     -0.49278303 [mEh]      -0.30922602 [kcal/mol]      -1.29380166 [kJ/mol]
  --------------------------------------------------------------------------------------------------------

*** Psi4 exiting successfully. Buy a developer a beer!
