                               Psi4 1.4a2.dev224

  ==> Input File <==

--------------------------------------------------------------------------
#Generated by lconvert.py for sapt job

memory 50 GB

molecule  {
0 1
  C      -2.587780   -0.323110    0.469460
  H      -2.610390   -0.876370   -0.469620
  H      -2.659740   -1.051890    1.277710
  H      -3.476030    0.305620    0.508960
  C      -1.309560    0.497390    0.585060
  H      -1.317250    1.083260    1.506340
  H      -1.262380    1.215570   -0.236780
  C      -0.056830   -0.368260    0.558440
  H      -0.086180   -1.073360    1.395870
  H      -0.053810   -0.976840   -0.351470
  C       1.231600    0.440070    0.632030
  H       1.213280    1.053560    1.534590
  H       1.266300    1.131380   -0.213110
  C       2.472570   -0.443140    0.619220
  H       2.520720   -1.035260   -0.294900
  H       3.387730    0.144090    0.683910
  H       2.459300   -1.139360    1.458620
--
0 1
  C       0.078690    0.279370    5.834600
  O       0.105610    1.464440    5.542760
  N       1.211270   -0.472510    5.937420
  H       2.082210   -0.049930    5.668760
  H       1.172340   -1.464390    6.068850
  C      -1.211530   -0.459570    6.099060
  H      -1.064280   -1.420290    6.586180
  H      -1.717750   -0.617880    5.148240
  H      -1.849470    0.167670    6.714330
units angstrom
no_reorient
symmetry c1
}

set {
scf_type DF
basis aug-cc-pvtz
freeze_core True
guess SAD
}
energy('sapt2+')
--------------------------------------------------------------------------

  //              Dimer HF             //
    Molecular point group: c1
  Charge       = 0
  Multiplicity = 1
  Basis Set: AUG-CC-PVTZ
    Blend: AUG-CC-PVTZ
  Basis Set: (AUG-CC-PVTZ AUX)
    Blend: AUG-CC-PVTZ-JKFIT
  @DF-RHF Final Energy:  -404.46765389953714
    Total Energy =                       -404.4676538995371402
  //            Monomer A HF           //
    Molecular point group: c1
  Multiplicity = 1
  Basis Set: AUG-CC-PVTZ
    Blend: AUG-CC-PVTZ
  Basis Set: (AUG-CC-PVTZ AUX)
    Blend: AUG-CC-PVTZ-JKFIT
  @DF-RHF Final Energy:  -196.40430243522445
    Total Energy =                       -196.4043024352244515
  //            Monomer B HF           //
    Molecular point group: c1

    Geometry (in Angstrom), charge = 0, multiplicity = 1:

       Center              X                  Y                   Z               Mass
    ------------   -----------------  -----------------  -----------------  -----------------
      Gh(C)          -2.588127990239    -0.381368914422    -2.479105962461    12.000000000000
      Gh(H)          -2.610737990239    -0.934628914422    -3.418185962461     1.007825032230
      Gh(H)          -2.660087990239    -1.110148914422    -1.670855962461     1.007825032230
      Gh(H)          -3.476377990239     0.247361085578    -2.439605962461     1.007825032230
      Gh(C)          -1.309907990239     0.439131085578    -2.363505962461    12.000000000000
      Gh(H)          -1.317597990239     1.025001085578    -1.442225962461     1.007825032230
      Gh(H)          -1.262727990239     1.157311085578    -3.185345962461     1.007825032230
      Gh(C)          -0.057177990239    -0.426518914422    -2.390125962461    12.000000000000
      Gh(H)          -0.086527990239    -1.131618914422    -1.552695962461     1.007825032230
      Gh(H)          -0.054157990239    -1.035098914422    -3.300035962461     1.007825032230
      Gh(C)           1.231252009761     0.381811085578    -2.316535962461    12.000000000000
      Gh(H)           1.212932009761     0.995301085578    -1.413975962461     1.007825032230
      Gh(H)           1.265952009761     1.073121085578    -3.161675962461     1.007825032230
      Gh(C)           2.472222009761    -0.501398914422    -2.329345962461    12.000000000000
      Gh(H)           2.520372009761    -1.093518914422    -3.243465962461     1.007825032230
      Gh(H)           3.387382009761     0.085831085578    -2.264655962461     1.007825032230
      Gh(H)           2.458952009761    -1.197618914422    -1.489945962461     1.007825032230
         C            0.078342009761     0.221111085578     2.886034037539    12.000000000000
         O            0.105262009761     1.406181085578     2.594194037539    15.994914619570
         N            1.210922009761    -0.530768914422     2.988854037539    14.003074004430
         H            2.081862009761    -0.108188914422     2.720194037539     1.007825032230
         H            1.171992009761    -1.522648914422     3.120284037539     1.007825032230
         C           -1.211877990239    -0.517828914422     3.150494037539    12.000000000000
         H           -1.064627990239    -1.478548914422     3.637614037539     1.007825032230
         H           -1.718097990239    -0.676138914422     2.199674037539     1.007825032230
         H           -1.849817990239     0.109411085578     3.765764037539     1.007825032230

  Charge       = 0
  Multiplicity = 1
  Basis Set: AUG-CC-PVTZ
    Blend: AUG-CC-PVTZ
  Basis Set: (AUG-CC-PVTZ AUX)
    Blend: AUG-CC-PVTZ-JKFIT

    Orbital Energies [Eh]
    ---------------------

    Doubly Occupied:

       1A    -20.516795     2A    -15.587530     3A    -11.353991
       4A    -11.238075     5A     -1.378094     6A     -1.214510
       7A     -1.007203     8A     -0.800947     9A     -0.728627
      10A     -0.665311    11A     -0.616601    12A     -0.586584
      13A     -0.563484    14A     -0.525275    15A     -0.425533
      16A     -0.415980

  @DF-RHF Final Energy:  -208.06316662941055

   => Energetics <=

    Nuclear Repulsion Energy =            121.8660752130245015
    One-Electron Energy =                -524.6094034595570292
    Two-Electron Energy =                 194.6801616171219962
    Total Energy =                       -208.0631666294105457

  Dipole Moment: [D]
     X:     0.4513      Y:    -4.1752      Z:     0.6222     Total:     4.2454

    SAPT Results
  --------------------------------------------------------------------------------------------------------
    Electrostatics                 -0.10432428 [mEh]      -0.06546448 [kcal/mol]      -0.27390337 [kJ/mol]
      Elst10,r                     -0.11573768 [mEh]      -0.07262649 [kcal/mol]      -0.30386923 [kJ/mol]
      Elst12,r                      0.01141339 [mEh]       0.00716201 [kcal/mol]       0.02996586 [kJ/mol]

    Exchange                        0.03397613 [mEh]       0.02132035 [kcal/mol]       0.08920433 [kJ/mol]
      Exch10                        0.02715073 [mEh]       0.01703734 [kcal/mol]       0.07128422 [kJ/mol]
      Exch10(S^2)                   0.02715078 [mEh]       0.01703737 [kcal/mol]       0.07128437 [kJ/mol]
      Exch11(S^2)                  -0.00048897 [mEh]      -0.00030683 [kcal/mol]      -0.00128379 [kJ/mol]
      Exch12(S^2)                   0.00731438 [mEh]       0.00458984 [kcal/mol]       0.01920390 [kJ/mol]

    Induction                      -0.08147476 [mEh]      -0.05112619 [kcal/mol]      -0.21391196 [kJ/mol]
      Ind20,r                      -0.09776546 [mEh]      -0.06134875 [kcal/mol]      -0.25668317 [kJ/mol]
      Ind22                         0.01522872 [mEh]       0.00955617 [kcal/mol]       0.03998300 [kJ/mol]
      Exch-Ind20,r                  0.00292444 [mEh]       0.00183511 [kcal/mol]       0.00767811 [kJ/mol]
      Exch-Ind22                   -0.00045553 [mEh]      -0.00028585 [kcal/mol]      -0.00119600 [kJ/mol]
      delta HF,r (2)               -0.00140693 [mEh]      -0.00088286 [kcal/mol]      -0.00369391 [kJ/mol]

    Dispersion                     -0.96963298 [mEh]      -0.60845388 [kcal/mol]      -2.54577103 [kJ/mol]
      Disp20                       -0.96284732 [mEh]      -0.60419582 [kcal/mol]      -2.52795530 [kJ/mol]
      Disp21                        0.15224984 [mEh]       0.09553822 [kcal/mol]       0.39973189 [kJ/mol]
      Disp22 (SDQ)                  0.01536782 [mEh]       0.00964345 [kcal/mol]       0.04034821 [kJ/mol]
      Disp22 (T)                   -0.17322105 [mEh]      -0.10869785 [kcal/mol]      -0.45479179 [kJ/mol]
      Est. Disp22 (T)              -0.18025185 [mEh]      -0.11310974 [kcal/mol]      -0.47325117 [kJ/mol]
      Exch-Disp20                   0.00584854 [mEh]       0.00367001 [kcal/mol]       0.01535534 [kJ/mol]

  Total HF                         -0.18483490 [mEh]      -0.11598565 [kcal/mol]      -0.48528397 [kJ/mol]
  Total SAPT0                      -1.14183369 [mEh]      -0.71651146 [kcal/mol]      -2.99788393 [kJ/mol]
  Total SAPT2                      -1.10882170 [mEh]      -0.69579612 [kcal/mol]      -2.91121096 [kJ/mol]
  Total SAPT2+                     -1.12145589 [mEh]      -0.70372419 [kcal/mol]      -2.94438203 [kJ/mol]

  Special recipe for scaled SAPT0 (see Manual):
    Electrostatics sSAPT0          -0.11573768 [mEh]      -0.07262649 [kcal/mol]      -0.30386923 [kJ/mol]
    Exchange sSAPT0                 0.02715073 [mEh]       0.01703734 [kcal/mol]       0.07128422 [kJ/mol]
    Induction sSAPT0               -0.09624797 [mEh]      -0.06039651 [kcal/mol]      -0.25269901 [kJ/mol]
    Dispersion sSAPT0              -0.95699882 [mEh]      -0.60052583 [kcal/mol]      -2.51260006 [kJ/mol]
  Total sSAPT0                     -1.14183374 [mEh]      -0.71651149 [kcal/mol]      -2.99788408 [kJ/mol]
  --------------------------------------------------------------------------------------------------------

*** Psi4 exiting successfully. Buy a developer a beer!
