                               Psi4 1.4a2.dev224

  ==> Input File <==

--------------------------------------------------------------------------
#Generated by lconvert.py for sapt job

memory 50 GB

molecule  {
0 1
  C       0.606790    1.330420    0.316440
  H       1.246500    2.202260    0.330350
  C       1.118080    0.087250    0.685120
  H       2.150060   -0.003890    0.993760
  C       0.292900   -1.036090    0.669110
  H       0.688500   -2.000960    0.955380
  C      -1.042830   -0.916710    0.288190
  H      -1.682710   -1.788490    0.279350
  C      -1.553590    0.327350   -0.079940
  H      -2.589230    0.420290   -0.377350
  C      -0.728040    1.450840   -0.066850
  H      -1.123620    2.415660   -0.353860
--
0 1
  C       0.315140   -0.119290    4.942490
  O       1.510630    0.044660    5.019010
  O      -0.264360   -1.330690    5.141930
  H       0.470090   -1.931800    5.334970
  C      -0.706750    0.924640    4.621810
  H      -0.228450    1.895590    4.574990
  H      -1.159550    0.691450    3.659100
  H      -1.491600    0.919110    5.374310
units angstrom
no_reorient
symmetry c1
}

set {
scf_type DF
basis aug-cc-pvtz
freeze_core True
guess SAD
}
energy('sapt2+')
--------------------------------------------------------------------------

  //              Dimer HF             //
    Molecular point group: c1
  Charge       = 0
  Multiplicity = 1
  Basis Set: AUG-CC-PVTZ
    Blend: AUG-CC-PVTZ
  Basis Set: (AUG-CC-PVTZ AUX)
    Blend: AUG-CC-PVTZ-JKFIT
  @DF-RHF Final Energy:  -458.68750828527777
    Total Energy =                       -458.6875082852777723
  //            Monomer A HF           //
    Molecular point group: c1
  Multiplicity = 1
  Basis Set: AUG-CC-PVTZ
    Blend: AUG-CC-PVTZ
  Basis Set: (AUG-CC-PVTZ AUX)
    Blend: AUG-CC-PVTZ-JKFIT
  @DF-RHF Final Energy:  -230.78131579866076
    Total Energy =                       -230.7813157986607848
  //            Monomer B HF           //
    Molecular point group: c1

    Geometry (in Angstrom), charge = 0, multiplicity = 1:

       Center              X                  Y                   Z               Mass
    ------------   -----------------  -----------------  -----------------  -----------------
      Gh(C)           0.637171656416     1.280790422614    -2.001064107505    12.000000000000
      Gh(H)           1.276881656416     2.152630422614    -1.987154107505     1.007825032230
      Gh(C)           1.148461656416     0.037620422614    -1.632384107505    12.000000000000
      Gh(H)           2.180441656416    -0.053519577386    -1.323744107505     1.007825032230
      Gh(C)           0.323281656416    -1.085719577386    -1.648394107505    12.000000000000
      Gh(H)           0.718881656416    -2.050589577386    -1.362124107505     1.007825032230
      Gh(C)          -1.012448343584    -0.966339577386    -2.029314107505    12.000000000000
      Gh(H)          -1.652328343584    -1.838119577386    -2.038154107505     1.007825032230
      Gh(C)          -1.523208343584     0.277720422614    -2.397444107505    12.000000000000
      Gh(H)          -2.558848343584     0.370660422614    -2.694854107505     1.007825032230
      Gh(C)          -0.697658343584     1.401210422614    -2.384354107505    12.000000000000
      Gh(H)          -1.093238343584     2.366030422614    -2.671364107505     1.007825032230
         C            0.345521656416    -0.168919577386     2.624985892495    12.000000000000
         O            1.541011656416    -0.004969577386     2.701505892495    15.994914619570
         O           -0.233978343584    -1.380319577386     2.824425892495    15.994914619570
         H            0.500471656416    -1.981429577386     3.017465892495     1.007825032230
         C           -0.676368343584     0.875010422614     2.304305892495    12.000000000000
         H           -0.198068343584     1.845960422614     2.257485892495     1.007825032230
         H           -1.129168343584     0.641820422614     1.341595892495     1.007825032230
         H           -1.461218343584     0.869480422614     3.056805892495     1.007825032230

  Charge       = 0
  Multiplicity = 1
  Basis Set: AUG-CC-PVTZ
    Blend: AUG-CC-PVTZ
  Basis Set: (AUG-CC-PVTZ AUX)
    Blend: AUG-CC-PVTZ-JKFIT

    Orbital Energies [Eh]
    ---------------------

    Doubly Occupied:

       1A    -20.615432     2A    -20.553059     3A    -11.391321
       4A    -11.246860     5A     -1.466818     6A     -1.362572
       7A     -1.032150     8A     -0.822423     9A     -0.708405
      10A     -0.682118    11A     -0.652912    12A     -0.587263
      13A     -0.576386    14A     -0.564274    15A     -0.485595
      16A     -0.457666

  @DF-RHF Final Energy:  -227.90516595292485

   => Energetics <=

    Nuclear Repulsion Energy =            121.2357765558105598
    One-Electron Energy =                -551.8713717995705110
    Two-Electron Energy =                 202.7304292908351044
    Total Energy =                       -227.9051659529248468

  Dipole Moment: [D]
     X:    -1.9886      Y:    -0.1498      Z:    -0.1728     Total:     2.0017

    SAPT Results
  --------------------------------------------------------------------------------------------------------
    Electrostatics                 -0.99317032 [mEh]      -0.62322379 [kcal/mol]      -2.60756832 [kJ/mol]
      Elst10,r                     -1.29704838 [mEh]      -0.81391015 [kcal/mol]      -3.40540006 [kJ/mol]
      Elst12,r                      0.30387806 [mEh]       0.19068636 [kcal/mol]       0.79783174 [kJ/mol]

    Exchange                        0.49578086 [mEh]       0.31110719 [kcal/mol]       1.30167247 [kJ/mol]
      Exch10                        0.46914964 [mEh]       0.29439584 [kcal/mol]       1.23175220 [kJ/mol]
      Exch10(S^2)                   0.46908937 [mEh]       0.29435803 [kcal/mol]       1.23159398 [kJ/mol]
      Exch11(S^2)                   0.01090637 [mEh]       0.00684385 [kcal/mol]       0.02863467 [kJ/mol]
      Exch12(S^2)                   0.01572485 [mEh]       0.00986749 [kcal/mol]       0.04128560 [kJ/mol]

    Induction                      -0.18250711 [mEh]      -0.11452494 [kcal/mol]      -0.47917234 [kJ/mol]
      Ind20,r                      -0.30752611 [mEh]      -0.19297555 [kcal/mol]      -0.80740969 [kJ/mol]
      Ind22                         0.03206773 [mEh]       0.02012280 [kcal/mol]       0.08419381 [kJ/mol]
      Exch-Ind20,r                  0.15286185 [mEh]       0.09592226 [kcal/mol]       0.40133873 [kJ/mol]
      Exch-Ind22                   -0.01593989 [mEh]      -0.01000243 [kcal/mol]      -0.04185017 [kJ/mol]
      delta HF,r (2)               -0.04397069 [mEh]      -0.02759202 [kcal/mol]      -0.11544502 [kJ/mol]

    Dispersion                     -2.46638681 [mEh]      -1.54768109 [kcal/mol]      -6.47549768 [kJ/mol]
      Disp20                       -2.71241735 [mEh]      -1.70206758 [kcal/mol]      -7.12145076 [kJ/mol]
      Disp21                        0.63201311 [mEh]       0.39659422 [kcal/mol]       1.65935020 [kJ/mol]
      Disp22 (SDQ)                  0.09361316 [mEh]       0.05874315 [kcal/mol]       0.24578133 [kJ/mol]
      Disp22 (T)                   -0.53816231 [mEh]      -0.33770195 [kcal/mol]      -1.41294495 [kJ/mol]
      Est. Disp22 (T)              -0.57214011 [mEh]      -0.35902334 [kcal/mol]      -1.50215365 [kJ/mol]
      Exch-Disp20                   0.09254437 [mEh]       0.05807247 [kcal/mol]       0.24297521 [kJ/mol]

  Total HF                         -1.02653369 [mEh]      -0.64415962 [kcal/mol]      -2.69516384 [kJ/mol]
  Total SAPT0                      -3.64640667 [mEh]      -2.28815473 [kcal/mol]      -9.57363940 [kJ/mol]
  Total SAPT2                      -3.29976955 [mEh]      -2.07063665 [kcal/mol]      -8.66354375 [kJ/mol]
  Total SAPT2+                     -3.14628338 [mEh]      -1.97432263 [kcal/mol]      -8.26056587 [kJ/mol]

  Special recipe for scaled SAPT0 (see Manual):
    Electrostatics sSAPT0          -1.29704838 [mEh]      -0.81391015 [kcal/mol]      -3.40540006 [kJ/mol]
    Exchange sSAPT0                 0.46914964 [mEh]       0.29439584 [kcal/mol]       1.23175220 [kJ/mol]
    Induction sSAPT0               -0.19857602 [mEh]      -0.12460834 [kcal/mol]      -0.52136128 [kJ/mol]
    Dispersion sSAPT0              -2.61983731 [mEh]      -1.64397273 [kcal/mol]      -6.87838190 [kJ/mol]
  Total sSAPT0                     -3.64631208 [mEh]      -2.28809537 [kcal/mol]      -9.57339104 [kJ/mol]
  --------------------------------------------------------------------------------------------------------

*** Psi4 exiting successfully. Buy a developer a beer!
