                               Psi4 1.4a2.dev224

  ==> Input File <==

--------------------------------------------------------------------------
#Generated by lconvert.py for sapt job

memory 50 GB

molecule  {
0 1
  C       0.606790    1.330420    0.316440
  H       1.246500    2.202260    0.330350
  C       1.118080    0.087250    0.685120
  H       2.150060   -0.003890    0.993760
  C       0.292900   -1.036090    0.669110
  H       0.688500   -2.000960    0.955380
  C      -1.042830   -0.916710    0.288190
  H      -1.682710   -1.788490    0.279350
  C      -1.553590    0.327350   -0.079940
  H      -2.589230    0.420290   -0.377350
  C      -0.728040    1.450840   -0.066850
  H      -1.123620    2.415660   -0.353860
--
0 1
  C       0.107840    0.184910    6.773980
  O       1.303340    0.348860    6.850490
  O      -0.471660   -1.026500    6.973410
  H       0.262790   -1.627610    7.166450
  C      -0.914040    1.228840    6.453290
  H      -0.435740    2.199780    6.406470
  H      -1.366840    0.995640    5.490590
  H      -1.698890    1.223300    7.205790
units angstrom
no_reorient
symmetry c1
}

set {
scf_type DF
basis aug-cc-pvtz
freeze_core True
guess SAD
}
energy('sapt2+')
--------------------------------------------------------------------------

  //              Dimer HF             //
    Molecular point group: c1
  Charge       = 0
  Multiplicity = 1
  Basis Set: AUG-CC-PVTZ
    Blend: AUG-CC-PVTZ
  Basis Set: (AUG-CC-PVTZ AUX)
    Blend: AUG-CC-PVTZ-JKFIT
  @DF-RHF Final Energy:  -458.68667006687150
    Total Energy =                       -458.6866700668715566
  //            Monomer A HF           //
    Molecular point group: c1
  Multiplicity = 1
  Basis Set: AUG-CC-PVTZ
    Blend: AUG-CC-PVTZ
  Basis Set: (AUG-CC-PVTZ AUX)
    Blend: AUG-CC-PVTZ-JKFIT
  @DF-RHF Final Energy:  -230.78124492715699
    Total Energy =                       -230.7812449271569903
  //            Monomer B HF           //
    Molecular point group: c1

    Geometry (in Angstrom), charge = 0, multiplicity = 1:

       Center              X                  Y                   Z               Mass
    ------------   -----------------  -----------------  -----------------  -----------------
      Gh(C)           0.727287126795     1.148549666100    -2.797248340982    12.000000000000
      Gh(H)           1.366997126795     2.020389666100    -2.783338340982     1.007825032230
      Gh(C)           1.238577126795    -0.094620333900    -2.428568340982    12.000000000000
      Gh(H)           2.270557126795    -0.185760333900    -2.119928340982     1.007825032230
      Gh(C)           0.413397126795    -1.217960333900    -2.444578340982    12.000000000000
      Gh(H)           0.808997126795    -2.182830333900    -2.158308340982     1.007825032230
      Gh(C)          -0.922332873205    -1.098580333900    -2.825498340982    12.000000000000
      Gh(H)          -1.562212873205    -1.970360333900    -2.834338340982     1.007825032230
      Gh(C)          -1.433092873205     0.145479666100    -3.193628340982    12.000000000000
      Gh(H)          -2.468732873205     0.238419666100    -3.491038340982     1.007825032230
      Gh(C)          -0.607542873205     1.268969666100    -3.180538340982    12.000000000000
      Gh(H)          -1.003122873205     2.233789666100    -3.467548340982     1.007825032230
         C            0.228337126795     0.003039666100     3.660291659018    12.000000000000
         O            1.423837126795     0.166989666100     3.736801659018    15.994914619570
         O           -0.351162873205    -1.208370333900     3.859721659018    15.994914619570
         H            0.383287126795    -1.809480333900     4.052761659018     1.007825032230
         C           -0.793542873205     1.046969666100     3.339601659018    12.000000000000
         H           -0.315242873205     2.017909666100     3.292781659018     1.007825032230
         H           -1.246342873205     0.813769666100     2.376901659018     1.007825032230
         H           -1.578392873205     1.041429666100     4.092101659018     1.007825032230

  Charge       = 0
  Multiplicity = 1
  Basis Set: AUG-CC-PVTZ
    Blend: AUG-CC-PVTZ
  Basis Set: (AUG-CC-PVTZ AUX)
    Blend: AUG-CC-PVTZ-JKFIT

    Orbital Energies [Eh]
    ---------------------

    Doubly Occupied:

       1A    -20.615480     2A    -20.553097     3A    -11.391352
       4A    -11.246859     5A     -1.466841     6A     -1.362595
       7A     -1.032165     8A     -0.822444     9A     -0.708424
      10A     -0.682133    11A     -0.652921    12A     -0.587280
      13A     -0.576401    14A     -0.564281    15A     -0.485604
      16A     -0.457685

  @DF-RHF Final Energy:  -227.90510298452290

   => Energetics <=

    Nuclear Repulsion Energy =            121.2354922442568181
    One-Electron Energy =                -551.8700596123528612
    Two-Electron Energy =                 202.7294643835731449
    Total Energy =                       -227.9051029845228982

  Dipole Moment: [D]
     X:    -1.9889      Y:    -0.1497      Z:    -0.1736     Total:     2.0021

    SAPT Results
  --------------------------------------------------------------------------------------------------------
    Electrostatics                 -0.22097728 [mEh]      -0.13866534 [kcal/mol]      -0.58017578 [kJ/mol]
      Elst10,r                     -0.30656262 [mEh]      -0.19237095 [kcal/mol]      -0.80488004 [kJ/mol]
      Elst12,r                      0.08558533 [mEh]       0.05370561 [kcal/mol]       0.22470426 [kJ/mol]

    Exchange                        0.00111603 [mEh]       0.00070032 [kcal/mol]       0.00293013 [kJ/mol]
      Exch10                        0.00103032 [mEh]       0.00064654 [kcal/mol]       0.00270511 [kJ/mol]
      Exch10(S^2)                   0.00103032 [mEh]       0.00064654 [kcal/mol]       0.00270511 [kJ/mol]
      Exch11(S^2)                  -0.00001189 [mEh]      -0.00000746 [kcal/mol]      -0.00003122 [kJ/mol]
      Exch12(S^2)                   0.00009760 [mEh]       0.00006124 [kcal/mol]       0.00025624 [kJ/mol]

    Induction                      -0.01363237 [mEh]      -0.00855444 [kcal/mol]      -0.03579177 [kJ/mol]
      Ind20,r                      -0.01667731 [mEh]      -0.01046517 [kcal/mol]      -0.04378626 [kJ/mol]
      Ind22                         0.00306016 [mEh]       0.00192028 [kcal/mol]       0.00803446 [kJ/mol]
      Exch-Ind20,r                  0.00037949 [mEh]       0.00023813 [kcal/mol]       0.00099635 [kJ/mol]
      Exch-Ind22                   -0.00006963 [mEh]      -0.00004370 [kcal/mol]      -0.00018282 [kJ/mol]
      delta HF,r (2)               -0.00032508 [mEh]      -0.00020399 [kcal/mol]      -0.00085350 [kJ/mol]

    Dispersion                     -0.28852038 [mEh]      -0.18104927 [kcal/mol]      -0.75751015 [kJ/mol]
      Disp20                       -0.31615537 [mEh]      -0.19839049 [kcal/mol]      -0.83006580 [kJ/mol]
      Disp21                        0.08966995 [mEh]       0.05626874 [kcal/mol]       0.23542841 [kJ/mol]
      Disp22 (SDQ)                  0.00667828 [mEh]       0.00419068 [kcal/mol]       0.01753382 [kJ/mol]
      Disp22 (T)                   -0.06745782 [mEh]      -0.04233042 [kcal/mol]      -0.17711048 [kJ/mol]
      Est. Disp22 (T)              -0.06905121 [mEh]      -0.04333029 [kcal/mol]      -0.18129394 [kJ/mol]
      Exch-Disp20                   0.00033798 [mEh]       0.00021208 [kcal/mol]       0.00088736 [kJ/mol]

  Total HF                         -0.32215519 [mEh]      -0.20215543 [kcal/mol]      -0.84581834 [kJ/mol]
  Total SAPT0                      -0.63797258 [mEh]      -0.40033384 [kcal/mol]      -1.67499678 [kJ/mol]
  Total SAPT2                      -0.54931101 [mEh]      -0.34469786 [kcal/mol]      -1.44221586 [kJ/mol]
  Total SAPT2+                     -0.52201400 [mEh]      -0.32756873 [kcal/mol]      -1.37054756 [kJ/mol]

  Special recipe for scaled SAPT0 (see Manual):
    Electrostatics sSAPT0          -0.30656262 [mEh]      -0.19237095 [kcal/mol]      -0.80488004 [kJ/mol]
    Exchange sSAPT0                 0.00103032 [mEh]       0.00064654 [kcal/mol]       0.00270511 [kJ/mol]
    Induction sSAPT0               -0.01662290 [mEh]      -0.01043103 [kcal/mol]      -0.04364341 [kJ/mol]
    Dispersion sSAPT0              -0.31581739 [mEh]      -0.19817840 [kcal/mol]      -0.82917844 [kJ/mol]
  Total sSAPT0                     -0.63797258 [mEh]      -0.40033384 [kcal/mol]      -1.67499678 [kJ/mol]
  --------------------------------------------------------------------------------------------------------

*** Psi4 exiting successfully. Buy a developer a beer!
