                               Psi4 1.4a2.dev224

  ==> Input File <==

--------------------------------------------------------------------------
#Generated by lconvert.py for sapt job

memory 50 GB

molecule  {
0 1
  C       0.606790    1.330420    0.316440
  H       1.246500    2.202260    0.330350
  C       1.118080    0.087250    0.685120
  H       2.150060   -0.003890    0.993760
  C       0.292900   -1.036090    0.669110
  H       0.688500   -2.000960    0.955380
  C      -1.042830   -0.916710    0.288190
  H      -1.682710   -1.788490    0.279350
  C      -1.553590    0.327350   -0.079940
  H      -2.589230    0.420290   -0.377350
  C      -0.728040    1.450840   -0.066850
  H      -1.123620    2.415660   -0.353860
--
0 1
  C       0.211490    0.032810    5.858230
  O       1.406980    0.196760    5.934750
  O      -0.368010   -1.178600    6.057670
  H       0.366440   -1.779700    6.250710
  C      -0.810390    1.076740    5.537550
  H      -0.332100    2.047690    5.490730
  H      -1.263190    0.843540    4.574850
  H      -1.595240    1.071200    6.290050
units angstrom
no_reorient
symmetry c1
}

set {
scf_type DF
basis aug-cc-pvtz
freeze_core True
guess SAD
}
energy('sapt2+')
--------------------------------------------------------------------------

  //              Dimer HF             //
    Molecular point group: c1
  Charge       = 0
  Multiplicity = 1
  Basis Set: AUG-CC-PVTZ
    Blend: AUG-CC-PVTZ
  Basis Set: (AUG-CC-PVTZ AUX)
    Blend: AUG-CC-PVTZ-JKFIT
  @DF-RHF Final Energy:  -458.68698910461421
    Total Energy =                       -458.6869891046142129
  //            Monomer A HF           //
    Molecular point group: c1
  Multiplicity = 1
  Basis Set: AUG-CC-PVTZ
    Blend: AUG-CC-PVTZ
  Basis Set: (AUG-CC-PVTZ AUX)
    Blend: AUG-CC-PVTZ-JKFIT
  @DF-RHF Final Energy:  -230.78126315999583
    Total Energy =                       -230.7812631599958308
  //            Monomer B HF           //
    Molecular point group: c1

    Geometry (in Angstrom), charge = 0, multiplicity = 1:

       Center              X                  Y                   Z               Mass
    ------------   -----------------  -----------------  -----------------  -----------------
      Gh(C)           0.682229499780     1.214670623597    -2.399155826173    12.000000000000
      Gh(H)           1.321939499780     2.086510623597    -2.385245826173     1.007825032230
      Gh(C)           1.193519499780    -0.028499376403    -2.030475826173    12.000000000000
      Gh(H)           2.225499499780    -0.119639376403    -1.721835826173     1.007825032230
      Gh(C)           0.368339499780    -1.151839376403    -2.046485826173    12.000000000000
      Gh(H)           0.763939499780    -2.116709376403    -1.760215826173     1.007825032230
      Gh(C)          -0.967390500220    -1.032459376403    -2.427405826173    12.000000000000
      Gh(H)          -1.607270500220    -1.904239376403    -2.436245826173     1.007825032230
      Gh(C)          -1.478150500220     0.211600623597    -2.795535826173    12.000000000000
      Gh(H)          -2.513790500220     0.304540623597    -3.092945826173     1.007825032230
      Gh(C)          -0.652600500220     1.335090623597    -2.782445826173    12.000000000000
      Gh(H)          -1.048180500220     2.299910623597    -3.069455826173     1.007825032230
         C            0.286929499780    -0.082939376403     3.142634173827    12.000000000000
         O            1.482419499780     0.081010623597     3.219154173827    15.994914619570
         O           -0.292570500220    -1.294349376403     3.342074173827    15.994914619570
         H            0.441879499780    -1.895449376403     3.535114173827     1.007825032230
         C           -0.734950500220     0.960990623597     2.821954173827    12.000000000000
         H           -0.256660500220     1.931940623597     2.775134173827     1.007825032230
         H           -1.187750500220     0.727790623597     1.859254173827     1.007825032230
         H           -1.519800500220     0.955450623597     3.574454173827     1.007825032230

  Charge       = 0
  Multiplicity = 1
  Basis Set: AUG-CC-PVTZ
    Blend: AUG-CC-PVTZ
  Basis Set: (AUG-CC-PVTZ AUX)
    Blend: AUG-CC-PVTZ-JKFIT

    Orbital Energies [Eh]
    ---------------------

    Doubly Occupied:

       1A    -20.615466     2A    -20.553087     3A    -11.391342
       4A    -11.246860     5A     -1.466836     6A     -1.362592
       7A     -1.032161     8A     -0.822438     9A     -0.708420
      10A     -0.682130    11A     -0.652919    12A     -0.587277
      13A     -0.576397    14A     -0.564279    15A     -0.485604
      16A     -0.457680

  @DF-RHF Final Energy:  -227.90511973581360

   => Energetics <=

    Nuclear Repulsion Energy =            121.2357761900240831
    One-Electron Energy =                -551.8708074641021994
    Two-Electron Energy =                 202.7299115382645311
    Total Energy =                       -227.9051197358135994

  Dipole Moment: [D]
     X:    -1.9888      Y:    -0.1497      Z:    -0.1733     Total:     2.0019

    SAPT Results
  --------------------------------------------------------------------------------------------------------
    Electrostatics                 -0.42139578 [mEh]      -0.26442985 [kcal/mol]      -1.10637447 [kJ/mol]
      Elst10,r                     -0.57932131 [mEh]      -0.36352961 [kcal/mol]      -1.52100788 [kJ/mol]
      Elst12,r                      0.15792552 [mEh]       0.09909976 [kcal/mol]       0.41463341 [kJ/mol]

    Exchange                        0.02400820 [mEh]       0.01506537 [kcal/mol]       0.06303352 [kJ/mol]
      Exch10                        0.02226829 [mEh]       0.01397356 [kcal/mol]       0.05846538 [kJ/mol]
      Exch10(S^2)                   0.02226821 [mEh]       0.01397352 [kcal/mol]       0.05846519 [kJ/mol]
      Exch11(S^2)                   0.00012367 [mEh]       0.00007760 [kcal/mol]       0.00032469 [kJ/mol]
      Exch12(S^2)                   0.00161624 [mEh]       0.00101421 [kcal/mol]       0.00424344 [kJ/mol]

    Induction                      -0.04180568 [mEh]      -0.02623346 [kcal/mol]      -0.10976080 [kJ/mol]
      Ind20,r                      -0.05368950 [mEh]      -0.03369067 [kcal/mol]      -0.14096177 [kJ/mol]
      Ind22                         0.00850516 [mEh]       0.00533707 [kcal/mol]       0.02233030 [kJ/mol]
      Exch-Ind20,r                  0.00729138 [mEh]       0.00457541 [kcal/mol]       0.01914352 [kJ/mol]
      Exch-Ind22                   -0.00115506 [mEh]      -0.00072481 [kcal/mol]      -0.00303260 [kJ/mol]
      delta HF,r (2)               -0.00275767 [mEh]      -0.00173046 [kcal/mol]      -0.00724026 [kJ/mol]

    Dispersion                     -0.76749859 [mEh]      -0.48161264 [kcal/mol]      -2.01506727 [kJ/mol]
      Disp20                       -0.83549005 [mEh]      -0.52427792 [kcal/mol]      -2.19357883 [kJ/mol]
      Disp21                        0.21980777 [mEh]       0.13793146 [kcal/mol]       0.57710521 [kJ/mol]
      Disp22 (SDQ)                  0.02260904 [mEh]       0.01418739 [kcal/mol]       0.05936003 [kJ/mol]
      Disp22 (T)                   -0.17330056 [mEh]      -0.10874774 [kcal/mol]      -0.45500055 [kJ/mol]
      Est. Disp22 (T)              -0.18026713 [mEh]      -0.11311933 [kcal/mol]      -0.47329128 [kJ/mol]
      Exch-Disp20                   0.00584178 [mEh]       0.00366577 [kcal/mol]       0.01533760 [kJ/mol]

  Total HF                         -0.60620880 [mEh]      -0.38040177 [kcal/mol]      -1.59160100 [kJ/mol]
  Total SAPT0                      -1.43585707 [mEh]      -0.90101392 [kcal/mol]      -3.76984223 [kJ/mol]
  Total SAPT2                      -1.26884153 [mEh]      -0.79621008 [kcal/mol]      -3.33134299 [kJ/mol]
  Total SAPT2+                     -1.20669186 [mEh]      -0.75721057 [kcal/mol]      -3.16816903 [kJ/mol]

  Special recipe for scaled SAPT0 (see Manual):
    Electrostatics sSAPT0          -0.57932131 [mEh]      -0.36352961 [kcal/mol]      -1.52100788 [kJ/mol]
    Exchange sSAPT0                 0.02226829 [mEh]       0.01397356 [kcal/mol]       0.05846538 [kJ/mol]
    Induction sSAPT0               -0.04915571 [mEh]      -0.03084568 [kcal/mol]      -0.12905831 [kJ/mol]
    Dispersion sSAPT0              -0.82964821 [mEh]      -0.52061211 [kcal/mol]      -2.17824108 [kJ/mol]
  Total sSAPT0                     -1.43585694 [mEh]      -0.90101383 [kcal/mol]      -3.76984188 [kJ/mol]
  --------------------------------------------------------------------------------------------------------

*** Psi4 exiting successfully. Buy a developer a beer!
