                               Psi4 1.4a2.dev224

  ==> Input File <==

--------------------------------------------------------------------------
#Generated by lconvert.py for sapt job

memory 50 GB

molecule  {
0 1
  C       1.629720    0.503010    0.270110
  H       1.641570    1.459240   -0.248080
  H       2.315320   -0.183550   -0.217590
  H       1.969750    0.649360    1.293980
  C       0.261830   -0.132860    0.314560
  O       0.099250   -1.309620    0.611840
  N      -0.773500    0.702510    0.022080
  H      -0.569010    1.666560   -0.165810
  C      -2.150010    0.265970    0.095050
  H      -2.144740   -0.819410    0.100910
  H      -2.640540    0.615820    1.003600
  H      -2.707740    0.620750   -0.768260
--
0 1
  C       0.192710    0.503260    5.353110
  H       0.187820    1.245440    6.138990
  H      -0.455830    0.671030    4.504430
  C       0.961220   -0.583700    5.422920
  H       1.606520   -0.755520    6.273050
  H       0.956100   -1.318900    4.630610
units angstrom
no_reorient
symmetry c1
}

set {
scf_type DF
basis aug-cc-pvtz
freeze_core True
guess SAD
}
energy('sapt2+')
--------------------------------------------------------------------------

  //              Dimer HF             //
    Molecular point group: c1
  Charge       = 0
  Multiplicity = 1
  Basis Set: AUG-CC-PVTZ
    Blend: AUG-CC-PVTZ
  Basis Set: (AUG-CC-PVTZ AUX)
    Blend: AUG-CC-PVTZ-JKFIT
  @DF-RHF Final Energy:  -325.16807135608451
    Total Energy =                       -325.1680713560845106
  //            Monomer A HF           //
    Molecular point group: c1
  Multiplicity = 1
  Basis Set: AUG-CC-PVTZ
    Blend: AUG-CC-PVTZ
  Basis Set: (AUG-CC-PVTZ AUX)
    Blend: AUG-CC-PVTZ-JKFIT
  @DF-RHF Final Energy:  -247.10285064052059
    Total Energy =                       -247.1028506405206144
  //            Monomer B HF           //
    Molecular point group: c1

    Geometry (in Angstrom), charge = 0, multiplicity = 1:

       Center              X                  Y                   Z               Mass
    ------------   -----------------  -----------------  -----------------  -----------------
      Gh(C)           1.613276028816     0.508558330296    -1.414495481606    12.000000000000
      Gh(H)           1.625126028816     1.464788330296    -1.932685481606     1.007825032230
      Gh(H)           2.298876028816    -0.178001669704    -1.902195481606     1.007825032230
      Gh(H)           1.953306028816     0.654908330296    -0.390625481606     1.007825032230
      Gh(C)           0.245386028816    -0.127311669704    -1.370045481606    12.000000000000
      Gh(O)           0.082806028816    -1.304071669704    -1.072765481606    15.994914619570
      Gh(N)          -0.789943971184     0.708058330296    -1.662525481606    14.003074004430
      Gh(H)          -0.585453971184     1.672108330296    -1.850415481606     1.007825032230
      Gh(C)          -2.166453971184     0.271518330296    -1.589555481606    12.000000000000
      Gh(H)          -2.161183971184    -0.813861669704    -1.583695481606     1.007825032230
      Gh(H)          -2.656983971184     0.621368330296    -0.681005481606     1.007825032230
      Gh(H)          -2.724183971184     0.626298330296    -2.452865481606     1.007825032230
         C            0.176266028816     0.508808330296     3.668504518394    12.000000000000
         H            0.171376028816     1.250988330296     4.454384518394     1.007825032230
         H           -0.472273971184     0.676578330296     2.819824518394     1.007825032230
         C            0.944776028816    -0.578151669704     3.738314518394    12.000000000000
         H            1.590076028816    -0.749971669704     4.588444518394     1.007825032230
         H            0.939656028816    -1.313351669704     2.946004518394     1.007825032230

  Charge       = 0
  Multiplicity = 1
  Basis Set: AUG-CC-PVTZ
    Blend: AUG-CC-PVTZ
  Basis Set: (AUG-CC-PVTZ AUX)
    Blend: AUG-CC-PVTZ-JKFIT

    Orbital Energies [Eh]
    ---------------------

    Doubly Occupied:

       1A    -11.231331     2A    -11.229612     3A     -1.034762
       4A     -0.792841     5A     -0.645756     6A     -0.586571
       7A     -0.509205     8A     -0.377037

  @DF-RHF Final Energy:   -78.06465620611371

   => Energetics <=

    Nuclear Repulsion Energy =             33.4189653728736644
    One-Electron Energy =                -170.1530139165633670
    Two-Electron Energy =                  58.6693923375760065
    Total Energy =                        -78.0646562061137104

  Dipole Moment: [D]
     X:    -0.0046      Y:     0.0006      Z:     0.0029     Total:     0.0055

    SAPT Results
  --------------------------------------------------------------------------------------------------------
    Electrostatics                 -0.41690483 [mEh]      -0.26161173 [kcal/mol]      -1.09458348 [kJ/mol]
      Elst10,r                     -0.52776834 [mEh]      -0.33117963 [kcal/mol]      -1.38565559 [kJ/mol]
      Elst12,r                      0.11086351 [mEh]       0.06956790 [kcal/mol]       0.29107211 [kJ/mol]

    Exchange                        0.04424979 [mEh]       0.02776717 [kcal/mol]       0.11617782 [kJ/mol]
      Exch10                        0.04100519 [mEh]       0.02573115 [kcal/mol]       0.10765912 [kJ/mol]
      Exch10(S^2)                   0.04100422 [mEh]       0.02573053 [kcal/mol]       0.10765656 [kJ/mol]
      Exch11(S^2)                   0.00038948 [mEh]       0.00024440 [kcal/mol]       0.00102258 [kJ/mol]
      Exch12(S^2)                   0.00285512 [mEh]       0.00179162 [kcal/mol]       0.00749612 [kJ/mol]

    Induction                      -0.06560249 [mEh]      -0.04116618 [kcal/mol]      -0.17223932 [kJ/mol]
      Ind20,r                      -0.08163515 [mEh]      -0.05122683 [kcal/mol]      -0.21433307 [kJ/mol]
      Ind22                         0.01336473 [mEh]       0.00838650 [kcal/mol]       0.03508910 [kJ/mol]
      Exch-Ind20,r                  0.00745770 [mEh]       0.00467978 [kcal/mol]       0.01958020 [kJ/mol]
      Exch-Ind22                   -0.00122092 [mEh]      -0.00076614 [kcal/mol]      -0.00320553 [kJ/mol]
      delta HF,r (2)               -0.00356885 [mEh]      -0.00223949 [kcal/mol]      -0.00937002 [kJ/mol]

    Dispersion                     -0.71754198 [mEh]      -0.45026439 [kcal/mol]      -1.88390620 [kJ/mol]
      Disp20                       -0.72301039 [mEh]      -0.45369587 [kcal/mol]      -1.89826353 [kJ/mol]
      Disp21                        0.09372610 [mEh]       0.05881402 [kcal/mol]       0.24607785 [kJ/mol]
      Disp22 (SDQ)                  0.03847310 [mEh]       0.02414224 [kcal/mol]       0.10101112 [kJ/mol]
      Disp22 (T)                   -0.12790054 [mEh]      -0.08025880 [kcal/mol]      -0.33580281 [kJ/mol]
      Est. Disp22 (T)              -0.13440745 [mEh]      -0.08434195 [kcal/mol]      -0.35288671 [kJ/mol]
      Exch-Disp20                   0.00767666 [mEh]       0.00481718 [kcal/mol]       0.02015507 [kJ/mol]

  Total HF                         -0.56450945 [mEh]      -0.35423503 [kcal/mol]      -1.48211936 [kJ/mol]
  Total SAPT0                      -1.27984318 [mEh]      -0.80311372 [kcal/mol]      -3.36022781 [kJ/mol]
  Total SAPT2                      -1.15359126 [mEh]      -0.72388944 [kcal/mol]      -3.02875343 [kJ/mol]
  Total SAPT2+                     -1.15579950 [mEh]      -0.72527514 [kcal/mol]      -3.03455118 [kJ/mol]

  Special recipe for scaled SAPT0 (see Manual):
    Electrostatics sSAPT0          -0.52776834 [mEh]      -0.33117963 [kcal/mol]      -1.38565559 [kJ/mol]
    Exchange sSAPT0                 0.04100519 [mEh]       0.02573115 [kcal/mol]       0.10765912 [kJ/mol]
    Induction sSAPT0               -0.07774577 [mEh]      -0.04878621 [kcal/mol]      -0.20412149 [kJ/mol]
    Dispersion sSAPT0              -0.71533318 [mEh]      -0.44887835 [kcal/mol]      -1.87810702 [kJ/mol]
  Total sSAPT0                     -1.27984210 [mEh]      -0.80311304 [kcal/mol]      -3.36022498 [kJ/mol]
  --------------------------------------------------------------------------------------------------------

*** Psi4 exiting successfully. Buy a developer a beer!
