                               Psi4 1.4a2.dev224

  ==> Input File <==

--------------------------------------------------------------------------
#Generated by lconvert.py for sapt job

memory 50 GB

molecule  {
0 1
  C       1.629720    0.503010    0.270110
  H       1.641570    1.459240   -0.248080
  H       2.315320   -0.183550   -0.217590
  H       1.969750    0.649360    1.293980
  C       0.261830   -0.132860    0.314560
  O       0.099250   -1.309620    0.611840
  N      -0.773500    0.702510    0.022080
  H      -0.569010    1.666560   -0.165810
  C      -2.150010    0.265970    0.095050
  H      -2.144740   -0.819410    0.100910
  H      -2.640540    0.615820    1.003600
  H      -2.707740    0.620750   -0.768260
--
0 1
  C       0.308660    0.496100    6.119860
  H       0.303780    1.238270    6.905740
  H      -0.339880    0.663870    5.271180
  C       1.077170   -0.590860    6.189670
  H       1.722470   -0.762690    7.039800
  H       1.072050   -1.326060    5.397360
units angstrom
no_reorient
symmetry c1
}

set {
scf_type DF
basis aug-cc-pvtz
freeze_core True
guess SAD
}
energy('sapt2+')
--------------------------------------------------------------------------

  //              Dimer HF             //
    Molecular point group: c1
  Charge       = 0
  Multiplicity = 1
  Basis Set: AUG-CC-PVTZ
    Blend: AUG-CC-PVTZ
  Basis Set: (AUG-CC-PVTZ AUX)
    Blend: AUG-CC-PVTZ-JKFIT
  @DF-RHF Final Energy:  -325.16779455440530
    Total Energy =                       -325.1677945544053046
  //            Monomer A HF           //
    Molecular point group: c1
  Multiplicity = 1
  Basis Set: AUG-CC-PVTZ
    Blend: AUG-CC-PVTZ
  Basis Set: (AUG-CC-PVTZ AUX)
    Blend: AUG-CC-PVTZ-JKFIT
  @DF-RHF Final Energy:  -247.10283563448169
    Total Energy =                       -247.1028356344817212
  //            Monomer B HF           //
    Molecular point group: c1

    Geometry (in Angstrom), charge = 0, multiplicity = 1:

       Center              X                  Y                   Z               Mass
    ------------   -----------------  -----------------  -----------------  -----------------
      Gh(C)           1.581122203571     0.510544046516    -1.627120484281    12.000000000000
      Gh(H)           1.592972203571     1.466774046516    -2.145310484281     1.007825032230
      Gh(H)           2.266722203571    -0.176015953484    -2.114820484281     1.007825032230
      Gh(H)           1.921152203571     0.656894046516    -0.603250484281     1.007825032230
      Gh(C)           0.213232203571    -0.125325953484    -1.582670484281    12.000000000000
      Gh(O)           0.050652203571    -1.302085953484    -1.285390484281    15.994914619570
      Gh(N)          -0.822097796429     0.710044046516    -1.875150484281    14.003074004430
      Gh(H)          -0.617607796429     1.674094046516    -2.063040484281     1.007825032230
      Gh(C)          -2.198607796429     0.273504046516    -1.802180484281    12.000000000000
      Gh(H)          -2.193337796429    -0.811875953484    -1.796320484281     1.007825032230
      Gh(H)          -2.689137796429     0.623354046516    -0.893630484281     1.007825032230
      Gh(H)          -2.756337796429     0.628284046516    -2.665490484281     1.007825032230
         C            0.260062203571     0.503634046516     4.222629515719    12.000000000000
         H            0.255182203571     1.245804046516     5.008509515719     1.007825032230
         H           -0.388477796429     0.671404046516     3.373949515719     1.007825032230
         C            1.028572203571    -0.583325953484     4.292439515719    12.000000000000
         H            1.673872203571    -0.755155953484     5.142569515719     1.007825032230
         H            1.023452203571    -1.318525953484     3.500129515719     1.007825032230

  Charge       = 0
  Multiplicity = 1
  Basis Set: AUG-CC-PVTZ
    Blend: AUG-CC-PVTZ
  Basis Set: (AUG-CC-PVTZ AUX)
    Blend: AUG-CC-PVTZ-JKFIT

    Orbital Energies [Eh]
    ---------------------

    Doubly Occupied:

       1A    -11.231332     2A    -11.229613     3A     -1.034762
       4A     -0.792842     5A     -0.645757     6A     -0.586571
       7A     -0.509206     8A     -0.377036

  @DF-RHF Final Energy:   -78.06464940381316

   => Energetics <=

    Nuclear Repulsion Energy =             33.4189855930828799
    One-Electron Energy =                -170.1530317511966075
    Two-Electron Energy =                  58.6693967543005641
    Total Energy =                        -78.0646494038131635

  Dipole Moment: [D]
     X:    -0.0046      Y:     0.0006      Z:     0.0027     Total:     0.0054

    SAPT Results
  --------------------------------------------------------------------------------------------------------
    Electrostatics                 -0.22059843 [mEh]      -0.13842760 [kcal/mol]      -0.57918109 [kJ/mol]
      Elst10,r                     -0.28232759 [mEh]      -0.17716324 [kcal/mol]      -0.74125099 [kJ/mol]
      Elst12,r                      0.06172917 [mEh]       0.03873564 [kcal/mol]       0.16206990 [kJ/mol]

    Exchange                        0.00361430 [mEh]       0.00226801 [kcal/mol]       0.00948935 [kJ/mol]
      Exch10                        0.00339975 [mEh]       0.00213338 [kcal/mol]       0.00892604 [kJ/mol]
      Exch10(S^2)                   0.00339974 [mEh]       0.00213337 [kcal/mol]       0.00892602 [kJ/mol]
      Exch11(S^2)                   0.00001269 [mEh]       0.00000796 [kcal/mol]       0.00003332 [kJ/mol]
      Exch12(S^2)                   0.00020186 [mEh]       0.00012667 [kcal/mol]       0.00052998 [kJ/mol]

    Induction                      -0.02518568 [mEh]      -0.01580425 [kcal/mol]      -0.06612498 [kJ/mol]
      Ind20,r                      -0.03061483 [mEh]      -0.01921110 [kcal/mol]      -0.08037923 [kJ/mol]
      Ind22                         0.00550477 [mEh]       0.00345430 [kcal/mol]       0.01445278 [kJ/mol]
      Exch-Ind20,r                  0.00056827 [mEh]       0.00035659 [kcal/mol]       0.00149199 [kJ/mol]
      Exch-Ind22                   -0.00010218 [mEh]      -0.00006412 [kcal/mol]      -0.00026827 [kJ/mol]
      delta HF,r (2)               -0.00054170 [mEh]      -0.00033992 [kcal/mol]      -0.00142225 [kJ/mol]

    Dispersion                     -0.29679508 [mEh]      -0.18624172 [kcal/mol]      -0.77923537 [kJ/mol]
      Disp20                       -0.30134600 [mEh]      -0.18909747 [kcal/mol]      -0.79118380 [kJ/mol]
      Disp21                        0.04363925 [mEh]       0.02738404 [kcal/mol]       0.11457483 [kJ/mol]
      Disp22 (SDQ)                  0.01643186 [mEh]       0.01031115 [kcal/mol]       0.04314185 [kJ/mol]
      Disp22 (T)                   -0.05452281 [mEh]      -0.03421358 [kcal/mol]      -0.14314962 [kJ/mol]
      Est. Disp22 (T)              -0.05625669 [mEh]      -0.03530160 [kcal/mol]      -0.14770191 [kJ/mol]
      Exch-Disp20                   0.00073650 [mEh]       0.00046216 [kcal/mol]       0.00193367 [kJ/mol]

  Total HF                         -0.30951611 [mEh]      -0.19422429 [kcal/mol]      -0.81263444 [kJ/mol]
  Total SAPT0                      -0.61012561 [mEh]      -0.38285960 [kcal/mol]      -1.60188457 [kJ/mol]
  Total SAPT2                      -0.54277930 [mEh]      -0.34059915 [kcal/mol]      -1.42506685 [kJ/mol]
  Total SAPT2+                     -0.53896488 [mEh]      -0.33820557 [kcal/mol]      -1.41505209 [kJ/mol]

  Special recipe for scaled SAPT0 (see Manual):
    Electrostatics sSAPT0          -0.28232759 [mEh]      -0.17716324 [kcal/mol]      -0.74125099 [kJ/mol]
    Exchange sSAPT0                 0.00339975 [mEh]       0.00213338 [kcal/mol]       0.00892604 [kJ/mol]
    Induction sSAPT0               -0.03058827 [mEh]      -0.01919443 [kcal/mol]      -0.08030949 [kJ/mol]
    Dispersion sSAPT0              -0.30060950 [mEh]      -0.18863531 [kcal/mol]      -0.78925013 [kJ/mol]
  Total sSAPT0                     -0.61012561 [mEh]      -0.38285960 [kcal/mol]      -1.60188457 [kJ/mol]
  --------------------------------------------------------------------------------------------------------

*** Psi4 exiting successfully. Buy a developer a beer!
