                               Psi4 1.4a2.dev224

  ==> Input File <==

--------------------------------------------------------------------------
#Generated by lconvert.py for sapt job

memory 50 GB

molecule  {
0 1
  C       1.629720    0.503010    0.270110
  H       1.641570    1.459240   -0.248080
  H       2.315320   -0.183550   -0.217590
  H       1.969750    0.649360    1.293980
  C       0.261830   -0.132860    0.314560
  O       0.099250   -1.309620    0.611840
  N      -0.773500    0.702510    0.022080
  H      -0.569010    1.666560   -0.165810
  C      -2.150010    0.265970    0.095050
  H      -2.144740   -0.819410    0.100910
  H      -2.640540    0.615820    1.003600
  H      -2.707740    0.620750   -0.768260
--
0 1
  C       0.076760    0.510430    4.586360
  H       0.071870    1.252600    5.372240
  H      -0.571780    0.678200    3.737680
  C       0.845270   -0.576530    4.656170
  H       1.490570   -0.748360    5.506300
  H       0.840150   -1.311740    3.863860
units angstrom
no_reorient
symmetry c1
}

set {
scf_type DF
basis aug-cc-pvtz
freeze_core True
guess SAD
}
energy('sapt2+')
--------------------------------------------------------------------------

  //              Dimer HF             //
    Molecular point group: c1
  Charge       = 0
  Multiplicity = 1
  Basis Set: AUG-CC-PVTZ
    Blend: AUG-CC-PVTZ
  Basis Set: (AUG-CC-PVTZ AUX)
    Blend: AUG-CC-PVTZ-JKFIT
  @DF-RHF Final Energy:  -325.16849646596052
    Total Energy =                       -325.1684964659605157
  //            Monomer A HF           //
    Molecular point group: c1
  Multiplicity = 1
  Basis Set: AUG-CC-PVTZ
    Blend: AUG-CC-PVTZ
  Basis Set: (AUG-CC-PVTZ AUX)
    Blend: AUG-CC-PVTZ-JKFIT
  @DF-RHF Final Energy:  -247.10288082533424
    Total Energy =                       -247.1028808253342390
  //            Monomer B HF           //
    Molecular point group: c1

    Geometry (in Angstrom), charge = 0, multiplicity = 1:

       Center              X                  Y                   Z               Mass
    ------------   -----------------  -----------------  -----------------  -----------------
      Gh(C)           1.645429754359     0.506570339516    -1.201870478931    12.000000000000
      Gh(H)           1.657279754359     1.462800339516    -1.720060478931     1.007825032230
      Gh(H)           2.331029754359    -0.179989660484    -1.689570478931     1.007825032230
      Gh(H)           1.985459754359     0.652920339516    -0.178000478931     1.007825032230
      Gh(C)           0.277539754359    -0.129299660484    -1.157420478931    12.000000000000
      Gh(O)           0.114959754359    -1.306059660484    -0.860140478931    15.994914619570
      Gh(N)          -0.757790245641     0.706070339516    -1.449900478931    14.003074004430
      Gh(H)          -0.553300245641     1.670120339516    -1.637790478931     1.007825032230
      Gh(C)          -2.134300245641     0.269530339516    -1.376930478931    12.000000000000
      Gh(H)          -2.129030245641    -0.815849660484    -1.371070478931     1.007825032230
      Gh(H)          -2.624830245641     0.619380339516    -0.468380478931     1.007825032230
      Gh(H)          -2.692030245641     0.624310339516    -2.240240478931     1.007825032230
         C            0.092469754359     0.513990339516     3.114379521069    12.000000000000
         H            0.087579754359     1.256160339516     3.900259521069     1.007825032230
         H           -0.556070245641     0.681760339516     2.265699521069     1.007825032230
         C            0.860979754359    -0.572969660484     3.184189521069    12.000000000000
         H            1.506279754359    -0.744799660484     4.034319521069     1.007825032230
         H            0.855859754359    -1.308179660484     2.391879521069     1.007825032230

  Charge       = 0
  Multiplicity = 1
  Basis Set: AUG-CC-PVTZ
    Blend: AUG-CC-PVTZ
  Basis Set: (AUG-CC-PVTZ AUX)
    Blend: AUG-CC-PVTZ-JKFIT

    Orbital Energies [Eh]
    ---------------------

    Doubly Occupied:

       1A    -11.231316     2A    -11.229596     3A     -1.034747
       4A     -0.792828     5A     -0.645740     6A     -0.586558
       7A     -0.509190     8A     -0.377035

  @DF-RHF Final Energy:   -78.06467317230059

   => Energetics <=

    Nuclear Repulsion Energy =             33.4189563951547157
    One-Electron Energy =                -170.1532428215444668
    Two-Electron Energy =                  58.6696132540891711
    Total Energy =                        -78.0646731723005871

  Dipole Moment: [D]
     X:    -0.0049      Y:     0.0004      Z:     0.0028     Total:     0.0056

    SAPT Results
  --------------------------------------------------------------------------------------------------------
    Electrostatics                 -0.98242958 [mEh]      -0.61648387 [kcal/mol]      -2.57936849 [kJ/mol]
      Elst10,r                     -1.18685785 [mEh]      -0.74476455 [kcal/mol]      -3.11609486 [kJ/mol]
      Elst12,r                      0.20442828 [mEh]       0.12828068 [kcal/mol]       0.53672637 [kJ/mol]

    Exchange                        0.53813597 [mEh]       0.33768542 [kcal/mol]       1.41287579 [kJ/mol]
      Exch10                        0.49615478 [mEh]       0.31134182 [kcal/mol]       1.30265419 [kJ/mol]
      Exch10(S^2)                   0.49606373 [mEh]       0.31128469 [kcal/mol]       1.30241515 [kJ/mol]
      Exch11(S^2)                   0.00782735 [mEh]       0.00491174 [kcal/mol]       0.02055072 [kJ/mol]
      Exch12(S^2)                   0.03415384 [mEh]       0.02143186 [kcal/mol]       0.08967089 [kJ/mol]

    Induction                      -0.22792711 [mEh]      -0.14302642 [kcal/mol]      -0.59842255 [kJ/mol]
      Ind20,r                      -0.31427744 [mEh]      -0.19721207 [kcal/mol]      -0.82513531 [kJ/mol]
      Ind22                         0.03496906 [mEh]       0.02194342 [kcal/mol]       0.09181125 [kJ/mol]
      Exch-Ind20,r                  0.10003695 [mEh]       0.06277413 [kcal/mol]       0.26264698 [kJ/mol]
      Exch-Ind22                   -0.01113092 [mEh]      -0.00698476 [kcal/mol]      -0.02922424 [kJ/mol]
      delta HF,r (2)               -0.03752476 [mEh]      -0.02354714 [kcal/mol]      -0.09852124 [kJ/mol]

    Dispersion                     -2.00369151 [mEh]      -1.25733540 [kcal/mol]      -5.26069133 [kJ/mol]
      Disp20                       -2.03402568 [mEh]      -1.27637039 [kcal/mol]      -5.34033369 [kJ/mol]
      Disp21                        0.22474231 [mEh]       0.14102793 [kcal/mol]       0.59006084 [kJ/mol]
      Disp22 (SDQ)                  0.10351389 [mEh]       0.06495594 [kcal/mol]       0.27177567 [kJ/mol]
      Disp22 (T)                   -0.34783902 [mEh]      -0.21827228 [kcal/mol]      -0.91325122 [kJ/mol]
      Est. Disp22 (T)              -0.37460938 [mEh]      -0.23507094 [kcal/mol]      -0.98353679 [kJ/mol]
      Exch-Disp20                   0.07668736 [mEh]       0.04812205 [kcal/mol]       0.20134265 [kJ/mol]

  Total HF                         -0.94246833 [mEh]      -0.59140780 [kcal/mol]      -2.47445025 [kJ/mol]
  Total SAPT0                      -2.89980664 [mEh]      -1.81965614 [kcal/mol]      -7.61344130 [kJ/mol]
  Total SAPT2                      -2.62955904 [mEh]      -1.65007321 [kcal/mol]      -6.90390630 [kJ/mol]
  Total SAPT2+                     -2.67591223 [mEh]      -1.67916027 [kcal/mol]      -7.02560658 [kJ/mol]

  Special recipe for scaled SAPT0 (see Manual):
    Electrostatics sSAPT0          -1.18685785 [mEh]      -0.74476455 [kcal/mol]      -3.11609486 [kJ/mol]
    Exchange sSAPT0                 0.49615478 [mEh]       0.31134182 [kcal/mol]       1.30265419 [kJ/mol]
    Induction sSAPT0               -0.25171016 [mEh]      -0.15795051 [kcal/mol]      -0.66086493 [kJ/mol]
    Dispersion sSAPT0              -1.95729609 [mEh]      -1.22822184 [kcal/mol]      -5.13888017 [kJ/mol]
  Total sSAPT0                     -2.89970932 [mEh]      -1.81959507 [kcal/mol]      -7.61318577 [kJ/mol]
  --------------------------------------------------------------------------------------------------------

*** Psi4 exiting successfully. Buy a developer a beer!
