                               Psi4 1.4a2.dev224

  ==> Input File <==

--------------------------------------------------------------------------
#Generated by lconvert.py for sapt job

memory 50 GB

molecule  {
0 1
  N      -0.541060    0.029580   -0.208990
  H       0.055550   -0.786120   -0.130290
  H      -1.469670   -0.274710    0.053140
  C      -0.078800    1.042390    0.738460
  H      -0.720150    1.919410    0.671980
  H      -0.050760    0.723820    1.785510
  H       0.926430    1.356600    0.462000
--
0 1
  N       4.431520   -1.687000    0.176800
  C       4.769960   -0.874660   -0.834920
  H       4.227290   -1.019200   -1.760300
  C       5.741290    0.117470   -0.734550
  H       5.966140    0.741820   -1.587400
  C       6.402120    0.287020    0.477720
  H       7.159980    1.049250    0.594100
  C       6.061990   -0.547950    1.536840
  H       6.544580   -0.457480    2.499540
  C       5.078210   -1.512730    1.337660
  H       4.792130   -2.176480    2.144270
units angstrom
no_reorient
symmetry c1
}

set {
scf_type DF
basis aug-cc-pvtz
freeze_core True
guess SAD
}
energy('sapt2+')
--------------------------------------------------------------------------

  //              Dimer HF             //
    Molecular point group: c1
  Charge       = 0
  Multiplicity = 1
  Basis Set: AUG-CC-PVTZ
    Blend: AUG-CC-PVTZ
  Basis Set: (AUG-CC-PVTZ AUX)
    Blend: AUG-CC-PVTZ-JKFIT
  @DF-RHF Final Energy:  -342.03462944513694
    Total Energy =                       -342.0346294451369431
  //            Monomer A HF           //
    Molecular point group: c1
  Multiplicity = 1
  Basis Set: AUG-CC-PVTZ
    Blend: AUG-CC-PVTZ
  Basis Set: (AUG-CC-PVTZ AUX)
    Blend: AUG-CC-PVTZ-JKFIT
  @DF-RHF Final Energy:   -95.25533998863797
    Total Energy =                        -95.2553399886379708
  //            Monomer B HF           //
    Molecular point group: c1

    Geometry (in Angstrom), charge = 0, multiplicity = 1:

       Center              X                  Y                   Z               Mass
    ------------   -----------------  -----------------  -----------------  -----------------
      Gh(N)          -4.336528005943     0.392802751517    -0.523052155294    14.003074004430
      Gh(H)          -3.739918005943    -0.422897248483    -0.444352155294     1.007825032230
      Gh(H)          -5.265138005943     0.088512751517    -0.260922155294     1.007825032230
      Gh(C)          -3.874268005943     1.405612751517     0.424397844706    12.000000000000
      Gh(H)          -4.515618005943     2.282632751517     0.357917844706     1.007825032230
      Gh(H)          -3.846228005943     1.087042751517     1.471447844706     1.007825032230
      Gh(H)          -2.869038005943     1.719822751517     0.147937844706     1.007825032230
         N            0.636051994057    -1.323777248483    -0.137262155294    14.003074004430
         C            0.974491994057    -0.511437248483    -1.148982155294    12.000000000000
         H            0.431821994057    -0.655977248483    -2.074362155294     1.007825032230
         C            1.945821994057     0.480692751517    -1.048612155294    12.000000000000
         H            2.170671994057     1.105042751517    -1.901462155294     1.007825032230
         C            2.606651994057     0.650242751517     0.163657844706    12.000000000000
         H            3.364511994057     1.412472751517     0.280037844706     1.007825032230
         C            2.266521994057    -0.184727248483     1.222777844706    12.000000000000
         H            2.749111994057    -0.094257248483     2.185477844706     1.007825032230
         C            1.282741994057    -1.149507248483     1.023597844706    12.000000000000
         H            0.996661994057    -1.813257248483     1.830207844706     1.007825032230

  Charge       = 0
  Multiplicity = 1
  Basis Set: AUG-CC-PVTZ
    Blend: AUG-CC-PVTZ
  Basis Set: (AUG-CC-PVTZ AUX)
    Blend: AUG-CC-PVTZ-JKFIT

    Orbital Energies [Eh]
    ---------------------

    Doubly Occupied:

       1A    -15.567320     2A    -11.275436     3A    -11.275406
       4A    -11.260687     5A    -11.242583     6A    -11.242526
       7A     -1.256708     8A     -1.090138     9A     -1.034248
      10A     -0.859887    11A     -0.856215    12A     -0.722408
      13A     -0.660882    14A     -0.654766    15A     -0.599000
      16A     -0.577575    17A     -0.541413    18A     -0.520550
      19A     -0.419639    20A     -0.384152    21A     -0.348296

  @DF-RHF Final Energy:  -246.77868646359840

   => Energetics <=

    Nuclear Repulsion Energy =            206.2349268025168953
    One-Electron Energy =                -741.2475584793644430
    Two-Electron Energy =                 288.2339452132492283
    Total Energy =                       -246.7786864635983761

  Dipole Moment: [D]
     X:     1.6261      Y:     1.6477      Z:     0.2527     Total:     2.3288

    SAPT Results
  --------------------------------------------------------------------------------------------------------
    Electrostatics                 -0.55091549 [mEh]      -0.34570469 [kcal/mol]      -1.44642841 [kJ/mol]
      Elst10,r                     -0.58390159 [mEh]      -0.36640378 [kcal/mol]      -1.53303340 [kJ/mol]
      Elst12,r                      0.03298610 [mEh]       0.02069909 [kcal/mol]       0.08660499 [kJ/mol]

    Exchange                        0.01182010 [mEh]       0.00741722 [kcal/mol]       0.03103366 [kJ/mol]
      Exch10                        0.01012374 [mEh]       0.00635274 [kcal/mol]       0.02657987 [kJ/mol]
      Exch10(S^2)                   0.01012362 [mEh]       0.00635267 [kcal/mol]       0.02657956 [kJ/mol]
      Exch11(S^2)                  -0.00003517 [mEh]      -0.00002207 [kcal/mol]      -0.00009234 [kJ/mol]
      Exch12(S^2)                   0.00173153 [mEh]       0.00108655 [kcal/mol]       0.00454613 [kJ/mol]

    Induction                      -0.02871431 [mEh]      -0.01801850 [kcal/mol]      -0.07538942 [kJ/mol]
      Ind20,r                      -0.02932590 [mEh]      -0.01840228 [kcal/mol]      -0.07699515 [kJ/mol]
      Ind22                         0.00053187 [mEh]       0.00033376 [kcal/mol]       0.00139643 [kJ/mol]
      Exch-Ind20,r                  0.00171678 [mEh]       0.00107729 [kcal/mol]       0.00450740 [kJ/mol]
      Exch-Ind22                   -0.00003114 [mEh]      -0.00001954 [kcal/mol]      -0.00008175 [kJ/mol]
      delta HF,r (2)               -0.00160593 [mEh]      -0.00100773 [kcal/mol]      -0.00421636 [kJ/mol]

    Dispersion                     -0.44943173 [mEh]      -0.28202267 [kcal/mol]      -1.17998284 [kJ/mol]
      Disp20                       -0.47891704 [mEh]      -0.30052498 [kcal/mol]      -1.25739653 [kJ/mol]
      Disp21                        0.10801706 [mEh]       0.06778173 [kcal/mol]       0.28359875 [kJ/mol]
      Disp22 (SDQ)                  0.01721498 [mEh]       0.01080256 [kcal/mol]       0.04519793 [kJ/mol]
      Disp22 (T)                   -0.09460270 [mEh]      -0.05936409 [kcal/mol]      -0.24837937 [kJ/mol]
      Est. Disp22 (T)              -0.09804013 [mEh]      -0.06152111 [kcal/mol]      -0.25740432 [kJ/mol]
      Exch-Disp20                   0.00229340 [mEh]       0.00143913 [kcal/mol]       0.00602133 [kJ/mol]

  Total HF                         -0.60299290 [mEh]      -0.37838376 [kcal/mol]      -1.58315764 [kJ/mol]
  Total SAPT0                      -1.07961654 [mEh]      -0.67746961 [kcal/mol]      -2.83453284 [kJ/mol]
  Total SAPT2                      -1.04443335 [mEh]      -0.65539182 [kcal/mol]      -2.74215937 [kJ/mol]
  Total SAPT2+                     -1.01724143 [mEh]      -0.63832864 [kcal/mol]      -2.67076702 [kJ/mol]

  Special recipe for scaled SAPT0 (see Manual):
    Electrostatics sSAPT0          -0.58390159 [mEh]      -0.36640378 [kcal/mol]      -1.53303340 [kJ/mol]
    Exchange sSAPT0                 0.01012374 [mEh]       0.00635274 [kcal/mol]       0.02657987 [kJ/mol]
    Induction sSAPT0               -0.02921499 [mEh]      -0.01833268 [kcal/mol]      -0.07670395 [kJ/mol]
    Dispersion sSAPT0              -0.47662356 [mEh]      -0.29908580 [kcal/mol]      -1.25137499 [kJ/mol]
  Total sSAPT0                     -1.07961640 [mEh]      -0.67746952 [kcal/mol]      -2.83453248 [kJ/mol]
  --------------------------------------------------------------------------------------------------------

*** Psi4 exiting successfully. Buy a developer a beer!
