                               Psi4 1.4a2.dev224

  ==> Input File <==

--------------------------------------------------------------------------
#Generated by lconvert.py for sapt job

memory 50 GB

molecule  {
0 1
  N      -0.541060    0.029580   -0.208990
  H       0.055550   -0.786120   -0.130290
  H      -1.469670   -0.274710    0.053140
  C      -0.078800    1.042390    0.738460
  H      -0.720150    1.919410    0.671980
  H      -0.050760    0.723820    1.785510
  H       0.926430    1.356600    0.462000
--
0 1
  N       3.740590   -1.544760    0.128310
  C       4.079030   -0.732420   -0.883400
  H       3.536360   -0.876960   -1.808780
  C       5.050360    0.259720   -0.783040
  H       5.275210    0.884060   -1.635890
  C       5.711200    0.429260    0.429230
  H       6.469050    1.191500    0.545610
  C       5.371060   -0.405700    1.488350
  H       5.853650   -0.315240    2.451050
  C       4.387280   -1.370490    1.289170
  H       4.101200   -2.034240    2.095780
units angstrom
no_reorient
symmetry c1
}

set {
scf_type DF
basis aug-cc-pvtz
freeze_core True
guess SAD
}
energy('sapt2+')
--------------------------------------------------------------------------

  //              Dimer HF             //
    Molecular point group: c1
  Charge       = 0
  Multiplicity = 1
  Basis Set: AUG-CC-PVTZ
    Blend: AUG-CC-PVTZ
  Basis Set: (AUG-CC-PVTZ AUX)
    Blend: AUG-CC-PVTZ-JKFIT
  @DF-RHF Final Energy:  -342.03504436532910
    Total Energy =                       -342.0350443653290995
  //            Monomer A HF           //
    Molecular point group: c1
  Multiplicity = 1
  Basis Set: AUG-CC-PVTZ
    Blend: AUG-CC-PVTZ
  Basis Set: (AUG-CC-PVTZ AUX)
    Blend: AUG-CC-PVTZ-JKFIT
  @DF-RHF Final Energy:   -95.25534613571695
    Total Energy =                        -95.2553461357169482
  //            Monomer B HF           //
    Molecular point group: c1

    Geometry (in Angstrom), charge = 0, multiplicity = 1:

       Center              X                  Y                   Z               Mass
    ------------   -----------------  -----------------  -----------------  -----------------
      Gh(N)          -3.840431306525     0.290670090959    -0.488236811636    14.003074004430
      Gh(H)          -3.243821306525    -0.525029909041    -0.409536811636     1.007825032230
      Gh(H)          -4.769041306525    -0.013619909041    -0.226106811636     1.007825032230
      Gh(C)          -3.378171306525     1.303480090959     0.459213188364    12.000000000000
      Gh(H)          -4.019521306525     2.180500090959     0.392733188364     1.007825032230
      Gh(H)          -3.350131306525     0.984910090959     1.506263188364     1.007825032230
      Gh(H)          -2.372941306525     1.617690090959     0.182753188364     1.007825032230
         N            0.441218693475    -1.283669909041    -0.150936811636    14.003074004430
         C            0.779658693475    -0.471329909041    -1.162646811636    12.000000000000
         H            0.236988693475    -0.615869909041    -2.088026811636     1.007825032230
         C            1.750988693475     0.520810090959    -1.062286811636    12.000000000000
         H            1.975838693475     1.145150090959    -1.915136811636     1.007825032230
         C            2.411828693475     0.690350090959     0.149983188364    12.000000000000
         H            3.169678693475     1.452590090959     0.266363188364     1.007825032230
         C            2.071688693475    -0.144609909041     1.209103188364    12.000000000000
         H            2.554278693475    -0.054149909041     2.171803188364     1.007825032230
         C            1.087908693475    -1.109399909041     1.009923188364    12.000000000000
         H            0.801828693475    -1.773149909041     1.816533188364     1.007825032230

  Charge       = 0
  Multiplicity = 1
  Basis Set: AUG-CC-PVTZ
    Blend: AUG-CC-PVTZ
  Basis Set: (AUG-CC-PVTZ AUX)
    Blend: AUG-CC-PVTZ-JKFIT

    Orbital Energies [Eh]
    ---------------------

    Doubly Occupied:

       1A    -15.567317     2A    -11.275432     3A    -11.275402
       4A    -11.260682     5A    -11.242579     6A    -11.242523
       7A     -1.256707     8A     -1.090135     9A     -1.034243
      10A     -0.859882    11A     -0.856213    12A     -0.722404
      13A     -0.660879    14A     -0.654764    15A     -0.598995
      16A     -0.577572    17A     -0.541414    18A     -0.520547
      19A     -0.419637    20A     -0.384151    21A     -0.348292

  @DF-RHF Final Energy:  -246.77870365727080

   => Energetics <=

    Nuclear Repulsion Energy =            206.2348582823161962
    One-Electron Energy =                -741.2475856339663096
    Two-Electron Energy =                 288.2340236943793457
    Total Energy =                       -246.7787036572707962

  Dipole Moment: [D]
     X:     1.6262      Y:     1.6477      Z:     0.2527     Total:     2.3287

    SAPT Results
  --------------------------------------------------------------------------------------------------------
    Electrostatics                 -0.96079935 [mEh]      -0.60291069 [kcal/mol]      -2.52257834 [kJ/mol]
      Elst10,r                     -1.01533490 [mEh]      -0.63713227 [kcal/mol]      -2.66576141 [kJ/mol]
      Elst12,r                      0.05453555 [mEh]       0.03422157 [kcal/mol]       0.14318306 [kJ/mol]

    Exchange                        0.11257990 [mEh]       0.07064495 [kcal/mol]       0.29557848 [kJ/mol]
      Exch10                        0.09828335 [mEh]       0.06167374 [kcal/mol]       0.25804291 [kJ/mol]
      Exch10(S^2)                   0.09827521 [mEh]       0.06166863 [kcal/mol]       0.25802154 [kJ/mol]
      Exch11(S^2)                   0.00065075 [mEh]       0.00040835 [kcal/mol]       0.00170853 [kJ/mol]
      Exch12(S^2)                   0.01364580 [mEh]       0.00856287 [kcal/mol]       0.03582704 [kJ/mol]

    Induction                      -0.07833424 [mEh]      -0.04915548 [kcal/mol]      -0.20566652 [kJ/mol]
      Ind20,r                      -0.08530200 [mEh]      -0.05352781 [kcal/mol]      -0.22396037 [kJ/mol]
      Ind22                        -0.00103273 [mEh]      -0.00064805 [kcal/mol]      -0.00271142 [kJ/mol]
      Exch-Ind20,r                  0.01811274 [mEh]       0.01136592 [kcal/mol]       0.04755500 [kJ/mol]
      Exch-Ind22                    0.00021929 [mEh]       0.00013760 [kcal/mol]       0.00057573 [kJ/mol]
      delta HF,r (2)               -0.01033154 [mEh]      -0.00648314 [kcal/mol]      -0.02712545 [kJ/mol]

    Dispersion                     -1.04561822 [mEh]      -0.65613534 [kcal/mol]      -2.74527027 [kJ/mol]
      Disp20                       -1.10980249 [mEh]      -0.69641158 [kcal/mol]      -2.91378604 [kJ/mol]
      Disp21                        0.22816523 [mEh]       0.14317584 [kcal/mol]       0.59904773 [kJ/mol]
      Disp22 (SDQ)                  0.04182004 [mEh]       0.02624247 [kcal/mol]       0.10979849 [kJ/mol]
      Disp22 (T)                   -0.21263383 [mEh]      -0.13342974 [kcal/mol]      -0.55827005 [kJ/mol]
      Est. Disp22 (T)              -0.22460890 [mEh]      -0.14094422 [kcal/mol]      -0.58971060 [kJ/mol]
      Exch-Disp20                   0.01880791 [mEh]       0.01180214 [kcal/mol]       0.04938015 [kJ/mol]

  Total HF                         -0.99457234 [mEh]      -0.62410357 [kcal/mol]      -2.61124932 [kJ/mol]
  Total SAPT0                      -2.08556693 [mEh]      -1.30871300 [kcal/mol]      -5.47565521 [kJ/mol]
  Total SAPT2                      -2.01754828 [mEh]      -1.26603066 [kcal/mol]      -5.29707227 [kJ/mol]
  Total SAPT2+                     -1.97217191 [mEh]      -1.23755656 [kcal/mol]      -5.17793664 [kJ/mol]

  Special recipe for scaled SAPT0 (see Manual):
    Electrostatics sSAPT0          -1.01533490 [mEh]      -0.63713227 [kcal/mol]      -2.66576141 [kJ/mol]
    Exchange sSAPT0                 0.09828335 [mEh]       0.06167374 [kcal/mol]       0.25804291 [kJ/mol]
    Induction sSAPT0               -0.07751630 [mEh]      -0.04864221 [kcal/mol]      -0.20351901 [kJ/mol]
    Dispersion sSAPT0              -1.09098991 [mEh]      -0.68460650 [kcal/mol]      -2.86439362 [kJ/mol]
  Total sSAPT0                     -2.08555775 [mEh]      -1.30870725 [kcal/mol]      -5.47563112 [kJ/mol]
  --------------------------------------------------------------------------------------------------------

*** Psi4 exiting successfully. Buy a developer a beer!
