                               Psi4 1.4a2.dev224

  ==> Input File <==

--------------------------------------------------------------------------
#Generated by lconvert.py for sapt job

memory 50 GB

molecule  {
0 1
  N      -0.541060    0.029580   -0.208990
  H       0.055550   -0.786120   -0.130290
  H      -1.469670   -0.274710    0.053140
  C      -0.078800    1.042390    0.738460
  H      -0.720150    1.919410    0.671980
  H      -0.050760    0.723820    1.785510
  H       0.926430    1.356600    0.462000
--
0 1
  N       3.049670   -1.402520    0.079820
  C       3.388100   -0.590180   -0.931890
  H       2.845440   -0.734710   -1.857270
  C       4.359430    0.401960   -0.831520
  H       4.584280    1.026300   -1.684370
  C       5.020270    0.571500    0.380740
  H       5.778130    1.333740    0.497130
  C       4.680140   -0.263460    1.439870
  H       5.162730   -0.173000    2.402570
  C       3.696360   -1.228250    1.240680
  H       3.410270   -1.892000    2.047290
units angstrom
no_reorient
symmetry c1
}

set {
scf_type DF
basis aug-cc-pvtz
freeze_core True
guess SAD
}
energy('sapt2+')
--------------------------------------------------------------------------

  //              Dimer HF             //
    Molecular point group: c1
  Charge       = 0
  Multiplicity = 1
  Basis Set: AUG-CC-PVTZ
    Blend: AUG-CC-PVTZ
  Basis Set: (AUG-CC-PVTZ AUX)
    Blend: AUG-CC-PVTZ-JKFIT
  @DF-RHF Final Energy:  -342.03558304597561
    Total Energy =                       -342.0355830459756135
  //            Monomer A HF           //
    Molecular point group: c1
  Multiplicity = 1
  Basis Set: AUG-CC-PVTZ
    Blend: AUG-CC-PVTZ
  Basis Set: (AUG-CC-PVTZ AUX)
    Blend: AUG-CC-PVTZ-JKFIT
  @DF-RHF Final Energy:   -95.25535632826760
    Total Energy =                        -95.2553563282675952
  //            Monomer B HF           //
    Molecular point group: c1

    Geometry (in Angstrom), charge = 0, multiplicity = 1:

       Center              X                  Y                   Z               Mass
    ------------   -----------------  -----------------  -----------------  -----------------
      Gh(N)          -3.344337243862     0.188539610545    -0.453422741151    14.003074004430
      Gh(H)          -2.747727243862    -0.627160389455    -0.374722741151     1.007825032230
      Gh(H)          -4.272947243862    -0.115750389455    -0.191292741151     1.007825032230
      Gh(C)          -2.882077243862     1.201349610545     0.494027258849    12.000000000000
      Gh(H)          -3.523427243862     2.078369610545     0.427547258849     1.007825032230
      Gh(H)          -2.854037243862     0.882779610545     1.541077258849     1.007825032230
      Gh(H)          -1.876847243862     1.515559610545     0.217567258849     1.007825032230
         N            0.246392756138    -1.243560389455    -0.164612741151    14.003074004430
         C            0.584822756138    -0.431220389455    -1.176322741151    12.000000000000
         H            0.042162756138    -0.575750389455    -2.101702741151     1.007825032230
         C            1.556152756138     0.560919610545    -1.075952741151    12.000000000000
         H            1.781002756138     1.185259610545    -1.928802741151     1.007825032230
         C            2.216992756138     0.730459610545     0.136307258849    12.000000000000
         H            2.974852756138     1.492699610545     0.252697258849     1.007825032230
         C            1.876862756138    -0.104500389455     1.195437258849    12.000000000000
         H            2.359452756138    -0.014040389455     2.158137258849     1.007825032230
         C            0.893082756138    -1.069290389455     0.996247258849    12.000000000000
         H            0.606992756138    -1.733040389455     1.802857258849     1.007825032230

  Charge       = 0
  Multiplicity = 1
  Basis Set: AUG-CC-PVTZ
    Blend: AUG-CC-PVTZ
  Basis Set: (AUG-CC-PVTZ AUX)
    Blend: AUG-CC-PVTZ-JKFIT

    Orbital Energies [Eh]
    ---------------------

    Doubly Occupied:

       1A    -15.567305     2A    -11.275425     3A    -11.275393
       4A    -11.260676     5A    -11.242572     6A    -11.242513
       7A     -1.256700     8A     -1.090127     9A     -1.034236
      10A     -0.859872    11A     -0.856205    12A     -0.722395
      13A     -0.660869    14A     -0.654756    15A     -0.598986
      16A     -0.577562    17A     -0.541414    18A     -0.520540
      19A     -0.419627    20A     -0.384148    21A     -0.348288

  @DF-RHF Final Energy:  -246.77874847358987

   => Energetics <=

    Nuclear Repulsion Energy =            206.2349197195804891
    One-Electron Energy =                -741.2481196383263296
    Two-Electron Energy =                 288.2344514451559689
    Total Energy =                       -246.7787484735898715

  Dipole Moment: [D]
     X:     1.6263      Y:     1.6475      Z:     0.2527     Total:     2.3287

    SAPT Results
  --------------------------------------------------------------------------------------------------------
    Electrostatics                 -2.06542651 [mEh]      -1.29607470 [kcal/mol]      -5.42277656 [kJ/mol]
      Elst10,r                     -2.14233495 [mEh]      -1.34433548 [kcal/mol]      -5.62469964 [kJ/mol]
      Elst12,r                      0.07690844 [mEh]       0.04826077 [kcal/mol]       0.20192308 [kJ/mol]

    Exchange                        1.05924349 [mEh]       0.66468532 [kcal/mol]       2.78104339 [kJ/mol]
      Exch10                        0.94992195 [mEh]       0.59608502 [kcal/mol]       2.49401974 [kJ/mol]
      Exch10(S^2)                   0.94936867 [mEh]       0.59573783 [kcal/mol]       2.49256709 [kJ/mol]
      Exch11(S^2)                   0.01615272 [mEh]       0.01013598 [kcal/mol]       0.04240896 [kJ/mol]
      Exch12(S^2)                   0.09316882 [mEh]       0.05846432 [kcal/mol]       0.24461469 [kJ/mol]

    Induction                      -0.29659356 [mEh]      -0.18611527 [kcal/mol]      -0.77870627 [kJ/mol]
      Ind20,r                      -0.39776900 [mEh]      -0.24960382 [kcal/mol]      -1.04434238 [kJ/mol]
      Ind22                        -0.02147676 [mEh]      -0.01347687 [kcal/mol]      -0.05638722 [kJ/mol]
      Exch-Ind20,r                  0.19843891 [mEh]       0.12452229 [kcal/mol]       0.52100128 [kJ/mol]
      Exch-Ind22                    0.01071432 [mEh]       0.00672334 [kcal/mol]       0.02813045 [kJ/mol]
      delta HF,r (2)               -0.08650102 [mEh]      -0.05428021 [kcal/mol]      -0.22710840 [kJ/mol]

    Dispersion                     -2.73875127 [mEh]      -1.71859237 [kcal/mol]      -7.19059046 [kJ/mol]
      Disp20                       -2.95586875 [mEh]      -1.85483564 [kcal/mol]      -7.76063233 [kJ/mol]
      Disp21                        0.53904515 [mEh]       0.33825594 [kcal/mol]       1.41526284 [kJ/mol]
      Disp22 (SDQ)                  0.11571234 [mEh]       0.07261059 [kcal/mol]       0.30380271 [kJ/mol]
      Disp22 (T)                   -0.53991374 [mEh]      -0.33880098 [kcal/mol]      -1.41754332 [kJ/mol]
      Est. Disp22 (T)              -0.58481544 [mEh]      -0.36697723 [kcal/mol]      -1.53543273 [kJ/mol]
      Exch-Disp20                   0.14717544 [mEh]       0.09235398 [kcal/mol]       0.38640905 [kJ/mol]

  Total HF                         -1.47824412 [mEh]      -0.92761219 [kcal/mol]      -3.88112940 [kJ/mol]
  Total SAPT0                      -4.28693743 [mEh]      -2.69009385 [kcal/mol]     -11.25535268 [kJ/mol]
  Total SAPT2                      -4.11146990 [mEh]      -2.57998631 [kcal/mol]     -10.79466272 [kJ/mol]
  Total SAPT2+                     -4.04152785 [mEh]      -2.53609701 [kcal/mol]     -10.61102990 [kJ/mol]

  Special recipe for scaled SAPT0 (see Manual):
    Electrostatics sSAPT0          -2.14233495 [mEh]      -1.34433548 [kcal/mol]      -5.62469964 [kJ/mol]
    Exchange sSAPT0                 0.94992195 [mEh]       0.59608502 [kcal/mol]       2.49401974 [kJ/mol]
    Induction sSAPT0               -0.28548397 [mEh]      -0.17914390 [kcal/mol]      -0.74953806 [kJ/mol]
    Dispersion sSAPT0              -2.80843585 [mEh]      -1.76232010 [kcal/mol]      -7.37354730 [kJ/mol]
  Total sSAPT0                     -4.28633282 [mEh]      -2.68971445 [kcal/mol]     -11.25376526 [kJ/mol]
  --------------------------------------------------------------------------------------------------------

*** Psi4 exiting successfully. Buy a developer a beer!
