                               Psi4 1.4a2.dev224

  ==> Input File <==

--------------------------------------------------------------------------
#Generated by lconvert.py for sapt job

memory 50 GB

molecule  {
0 1
  C       1.175590   -0.145800    0.231610
  S      -0.147760    0.408100   -0.884360
  H      -0.442200    1.535650   -0.231010
  H       0.791450   -0.327970    1.229660
  H       1.542170   -1.081880   -0.179480
  H       1.988250    0.572530    0.252180
--
0 1
  O      -3.368830   -2.556790    2.762670
  H      -3.278850   -2.118080    1.908520
  H      -4.252490   -2.927920    2.738140
units angstrom
no_reorient
symmetry c1
}

set {
scf_type DF
basis aug-cc-pvtz
freeze_core True
guess SAD
}
energy('sapt2+')
--------------------------------------------------------------------------

  //              Dimer HF             //
    Molecular point group: c1
  Charge       = 0
  Multiplicity = 1
  Basis Set: AUG-CC-PVTZ
    Blend: AUG-CC-PVTZ
  Basis Set: (AUG-CC-PVTZ AUX)
    Blend: AUG-CC-PVTZ-JKFIT
  @DF-RHF Final Energy:  -513.81869754269837
    Total Energy =                       -513.8186975426983736
  //            Monomer A HF           //
    Molecular point group: c1
  Multiplicity = 1
  Basis Set: AUG-CC-PVTZ
    Blend: AUG-CC-PVTZ
  Basis Set: (AUG-CC-PVTZ AUX)
    Blend: AUG-CC-PVTZ-JKFIT
  @DF-RHF Final Energy:  -437.75767016284516
    Total Energy =                       -437.7576701628452156
  //            Monomer B HF           //
    Molecular point group: c1

    Geometry (in Angstrom), charge = 0, multiplicity = 1:

       Center              X                  Y                   Z               Mass
    ------------   -----------------  -----------------  -----------------  -----------------
      Gh(C)           1.905458703773     0.368926559681    -0.138856071368    12.000000000000
      Gh(S)           0.582108703773     0.922826559681    -1.254826071368    31.972071174400
      Gh(H)           0.287668703773     2.050376559681    -0.601476071368     1.007825032230
      Gh(H)           1.521318703773     0.186756559681     0.859193928632     1.007825032230
      Gh(H)           2.272038703773    -0.567153440319    -0.549946071368     1.007825032230
      Gh(H)           2.718118703773     1.087256559681    -0.118286071368     1.007825032230
         O           -2.638961296227    -2.042063440319     2.392203928632    15.994914619570
         H           -2.548981296227    -1.603353440319     1.538053928632     1.007825032230
         H           -3.522621296227    -2.413193440319     2.367673928632     1.007825032230

  Charge       = 0
  Multiplicity = 1
  Basis Set: AUG-CC-PVTZ
    Blend: AUG-CC-PVTZ
  Basis Set: (AUG-CC-PVTZ AUX)
    Blend: AUG-CC-PVTZ-JKFIT

    Orbital Energies [Eh]
    ---------------------

    Doubly Occupied:

       1A    -20.568265     2A     -1.351852     3A     -0.714190
       4A     -0.585407     5A     -0.510200

  @DF-RHF Final Energy:   -76.06022387694847

   => Energetics <=

    Nuclear Repulsion Energy =              9.1546391274009338
    One-Electron Energy =                -122.9698976754241357
    Two-Electron Energy =                  37.7550346710747178
    Total Energy =                        -76.0602238769484700

  Dipole Moment: [D]
     X:    -1.3382      Y:     0.1125      Z:    -1.4784     Total:     1.9973

    SAPT Results
  --------------------------------------------------------------------------------------------------------
    Electrostatics                 -0.71113120 [mEh]      -0.44624156 [kcal/mol]      -1.86707471 [kJ/mol]
      Elst10,r                     -0.78320045 [mEh]      -0.49146570 [kcal/mol]      -2.05629250 [kJ/mol]
      Elst12,r                      0.07206925 [mEh]       0.04522414 [kcal/mol]       0.18921779 [kJ/mol]

    Exchange                        0.00510508 [mEh]       0.00320348 [kcal/mol]       0.01340337 [kJ/mol]
      Exch10                        0.00440953 [mEh]       0.00276702 [kcal/mol]       0.01157723 [kJ/mol]
      Exch10(S^2)                   0.00440951 [mEh]       0.00276701 [kcal/mol]       0.01157716 [kJ/mol]
      Exch11(S^2)                   0.00013537 [mEh]       0.00008494 [kcal/mol]       0.00035541 [kJ/mol]
      Exch12(S^2)                   0.00056017 [mEh]       0.00035151 [kcal/mol]       0.00147073 [kJ/mol]

    Induction                      -0.02428391 [mEh]      -0.01523838 [kcal/mol]      -0.06375740 [kJ/mol]
      Ind20,r                      -0.02512809 [mEh]      -0.01576812 [kcal/mol]      -0.06597380 [kJ/mol]
      Ind22                         0.00045383 [mEh]       0.00028478 [kcal/mol]       0.00119154 [kJ/mol]
      Exch-Ind20,r                  0.00142601 [mEh]       0.00089483 [kcal/mol]       0.00374398 [kJ/mol]
      Exch-Ind22                   -0.00002575 [mEh]      -0.00001616 [kcal/mol]      -0.00006762 [kJ/mol]
      delta HF,r (2)               -0.00100990 [mEh]      -0.00063372 [kcal/mol]      -0.00265150 [kJ/mol]

    Dispersion                     -0.13368147 [mEh]      -0.08388639 [kcal/mol]      -0.35098065 [kJ/mol]
      Disp20                       -0.12859460 [mEh]      -0.08069433 [kcal/mol]      -0.33762509 [kJ/mol]
      Disp21                        0.01349958 [mEh]       0.00847111 [kcal/mol]       0.03544313 [kJ/mol]
      Disp22 (SDQ)                  0.00440294 [mEh]       0.00276289 [kcal/mol]       0.01155992 [kJ/mol]
      Disp22 (T)                   -0.02249583 [mEh]      -0.01411635 [kcal/mol]      -0.05906280 [kJ/mol]
      Est. Disp22 (T)              -0.02362503 [mEh]      -0.01482493 [kcal/mol]      -0.06202751 [kJ/mol]
      Exch-Disp20                   0.00063565 [mEh]       0.00039888 [kcal/mol]       0.00166891 [kJ/mol]

  Total HF                         -0.80350290 [mEh]      -0.50420568 [kcal/mol]      -2.10959659 [kJ/mol]
  Total SAPT0                      -0.93146186 [mEh]      -0.58450114 [kcal/mol]      -2.44555277 [kJ/mol]
  Total SAPT2                      -0.85826899 [mEh]      -0.53857192 [kcal/mol]      -2.25338492 [kJ/mol]
  Total SAPT2+                     -0.86399150 [mEh]      -0.54216285 [kcal/mol]      -2.26840938 [kJ/mol]

  Special recipe for scaled SAPT0 (see Manual):
    Electrostatics sSAPT0          -0.78320045 [mEh]      -0.49146570 [kcal/mol]      -2.05629250 [kJ/mol]
    Exchange sSAPT0                 0.00440953 [mEh]       0.00276702 [kcal/mol]       0.01157723 [kJ/mol]
    Induction sSAPT0               -0.02471199 [mEh]      -0.01550701 [kcal/mol]      -0.06488132 [kJ/mol]
    Dispersion sSAPT0              -0.12795895 [mEh]      -0.08029545 [kcal/mol]      -0.33595618 [kJ/mol]
  Total sSAPT0                     -0.93146186 [mEh]      -0.58450114 [kcal/mol]      -2.44555277 [kJ/mol]
  --------------------------------------------------------------------------------------------------------

*** Psi4 exiting successfully. Buy a developer a beer!
