                               Psi4 1.4a2.dev224

  ==> Input File <==

--------------------------------------------------------------------------
#Generated by lconvert.py for sapt job

memory 50 GB

molecule  {
0 1
  C       1.175590   -0.145800    0.231610
  S      -0.147760    0.408100   -0.884360
  H      -0.442200    1.535650   -0.231010
  H       0.791450   -0.327970    1.229660
  H       1.542170   -1.081880   -0.179480
  H       1.988250    0.572530    0.252180
--
0 1
  O      -2.804870   -2.181100    2.379140
  H      -2.714880   -1.742380    1.524990
  H      -3.688520   -2.552220    2.354610
units angstrom
no_reorient
symmetry c1
}

set {
scf_type DF
basis aug-cc-pvtz
freeze_core True
guess SAD
}
energy('sapt2+')
--------------------------------------------------------------------------

  //              Dimer HF             //
    Molecular point group: c1
  Charge       = 0
  Multiplicity = 1
  Basis Set: AUG-CC-PVTZ
    Blend: AUG-CC-PVTZ
  Basis Set: (AUG-CC-PVTZ AUX)
    Blend: AUG-CC-PVTZ-JKFIT
  @DF-RHF Final Energy:  -513.81934712774000
    Total Energy =                       -513.8193471277400022
  //            Monomer A HF           //
    Molecular point group: c1
  Multiplicity = 1
  Basis Set: AUG-CC-PVTZ
    Blend: AUG-CC-PVTZ
  Basis Set: (AUG-CC-PVTZ AUX)
    Blend: AUG-CC-PVTZ-JKFIT
  @DF-RHF Final Energy:  -437.75767891346010
    Total Energy =                       -437.7576789134601540
  //            Monomer B HF           //
    Molecular point group: c1

    Geometry (in Angstrom), charge = 0, multiplicity = 1:

       Center              X                  Y                   Z               Mass
    ------------   -----------------  -----------------  -----------------  -----------------
      Gh(C)           1.751593340895     0.266426851075    -0.034217682974    12.000000000000
      Gh(S)           0.428243340895     0.820326851075    -1.150187682974    31.972071174400
      Gh(H)           0.133803340895     1.947876851075    -0.496837682974     1.007825032230
      Gh(H)           1.367453340895     0.084256851075     0.963832317026     1.007825032230
      Gh(H)           2.118173340895    -0.669653148925    -0.445307682974     1.007825032230
      Gh(H)           2.564253340895     0.984756851075    -0.013647682974     1.007825032230
         O           -2.228866659105    -1.768873148925     2.113312317026    15.994914619570
         H           -2.138876659105    -1.330153148925     1.259162317026     1.007825032230
         H           -3.112516659105    -2.139993148925     2.088782317026     1.007825032230

  Charge       = 0
  Multiplicity = 1
  Basis Set: AUG-CC-PVTZ
    Blend: AUG-CC-PVTZ
  Basis Set: (AUG-CC-PVTZ AUX)
    Blend: AUG-CC-PVTZ-JKFIT

    Orbital Energies [Eh]
    ---------------------

    Doubly Occupied:

       1A    -20.568266     2A     -1.351854     3A     -0.714194
       4A     -0.585406     5A     -0.510200

  @DF-RHF Final Energy:   -76.06022843477105

   => Energetics <=

    Nuclear Repulsion Energy =              9.1546744546936516
    One-Electron Energy =                -122.9699623306235452
    Two-Electron Energy =                  37.7550594411588492
    Total Energy =                        -76.0602284347710480

  Dipole Moment: [D]
     X:    -1.3383      Y:     0.1125      Z:    -1.4785     Total:     1.9974

    SAPT Results
  --------------------------------------------------------------------------------------------------------
    Electrostatics                 -1.29246509 [mEh]      -0.81103409 [kcal/mol]      -3.39336662 [kJ/mol]
      Elst10,r                     -1.40823105 [mEh]      -0.88367832 [kcal/mol]      -3.69731010 [kJ/mol]
      Elst12,r                      0.11576596 [mEh]       0.07264423 [kcal/mol]       0.30394348 [kJ/mol]

    Exchange                        0.05885471 [mEh]       0.03693189 [kcal/mol]       0.15452302 [kJ/mol]
      Exch10                        0.05168732 [mEh]       0.03243428 [kcal/mol]       0.13570504 [kJ/mol]
      Exch10(S^2)                   0.05168426 [mEh]       0.03243236 [kcal/mol]       0.13569701 [kJ/mol]
      Exch11(S^2)                   0.00180759 [mEh]       0.00113428 [kcal/mol]       0.00474581 [kJ/mol]
      Exch12(S^2)                   0.00535980 [mEh]       0.00336333 [kcal/mol]       0.01407216 [kJ/mol]

    Induction                      -0.08359375 [mEh]      -0.05245587 [kcal/mol]      -0.21947536 [kJ/mol]
      Ind20,r                      -0.09150699 [mEh]      -0.05742150 [kcal/mol]      -0.24025157 [kJ/mol]
      Ind22                        -0.00043606 [mEh]      -0.00027363 [kcal/mol]      -0.00114488 [kJ/mol]
      Exch-Ind20,r                  0.01638842 [mEh]       0.01028389 [kcal/mol]       0.04302778 [kJ/mol]
      Exch-Ind22                    0.00007810 [mEh]       0.00004901 [kcal/mol]       0.00020504 [kJ/mol]
      delta HF,r (2)               -0.00811721 [mEh]      -0.00509363 [kcal/mol]      -0.02131174 [kJ/mol]

    Dispersion                     -0.36083237 [mEh]      -0.22642573 [kcal/mol]      -0.94736526 [kJ/mol]
      Disp20                       -0.34493728 [mEh]      -0.21645141 [kcal/mol]      -0.90563272 [kJ/mol]
      Disp21                        0.02934195 [mEh]       0.01841235 [kcal/mol]       0.07703728 [kJ/mol]
      Disp22 (SDQ)                  0.01112028 [mEh]       0.00697808 [kcal/mol]       0.02919629 [kJ/mol]
      Disp22 (T)                   -0.05881950 [mEh]      -0.03690980 [kcal/mol]      -0.15443058 [kJ/mol]
      Est. Disp22 (T)              -0.06290839 [mEh]      -0.03947561 [kcal/mol]      -0.16516596 [kJ/mol]
      Exch-Disp20                   0.00655107 [mEh]       0.00411086 [kcal/mol]       0.01719984 [kJ/mol]

  Total HF                         -1.43977951 [mEh]      -0.90347528 [kcal/mol]      -3.78014058 [kJ/mol]
  Total SAPT0                      -1.77816572 [mEh]      -1.11581584 [kcal/mol]      -4.66857346 [kJ/mol]
  Total SAPT2                      -1.65559034 [mEh]      -1.03889862 [kcal/mol]      -4.34675185 [kJ/mol]
  Total SAPT2+                     -1.67803650 [mEh]      -1.05298380 [kcal/mol]      -4.40568423 [kJ/mol]

  Special recipe for scaled SAPT0 (see Manual):
    Electrostatics sSAPT0          -1.40823105 [mEh]      -0.88367832 [kcal/mol]      -3.69731010 [kJ/mol]
    Exchange sSAPT0                 0.05168732 [mEh]       0.03243428 [kcal/mol]       0.13570504 [kJ/mol]
    Induction sSAPT0               -0.08323287 [mEh]      -0.05222942 [kcal/mol]      -0.21852788 [kJ/mol]
    Dispersion sSAPT0              -0.33838505 [mEh]      -0.21233982 [kcal/mol]      -0.88842982 [kJ/mol]
  Total sSAPT0                     -1.77816165 [mEh]      -1.11581328 [kcal/mol]      -4.66856276 [kJ/mol]
  --------------------------------------------------------------------------------------------------------

*** Psi4 exiting successfully. Buy a developer a beer!
