                               Psi4 1.4a2.dev224

  ==> Input File <==

--------------------------------------------------------------------------
#Generated by lconvert.py for sapt job

memory 50 GB

molecule  {
0 1
  C       1.175590   -0.145800    0.231610
  S      -0.147760    0.408100   -0.884360
  H      -0.442200    1.535650   -0.231010
  H       0.791450   -0.327970    1.229660
  H       1.542170   -1.081880   -0.179480
  H       1.988250    0.572530    0.252180
--
0 1
  O      -2.240910   -1.805410    1.995610
  H      -2.150920   -1.366690    1.141460
  H      -3.124560   -2.176530    1.971080
units angstrom
no_reorient
symmetry c1
}

set {
scf_type DF
basis aug-cc-pvtz
freeze_core True
guess SAD
}
energy('sapt2+')
--------------------------------------------------------------------------

  //              Dimer HF             //
    Molecular point group: c1
  Charge       = 0
  Multiplicity = 1
  Basis Set: AUG-CC-PVTZ
    Blend: AUG-CC-PVTZ
  Basis Set: (AUG-CC-PVTZ AUX)
    Blend: AUG-CC-PVTZ-JKFIT
  @DF-RHF Final Energy:  -513.82062954268622
    Total Energy =                       -513.8206295426862198
  //            Monomer A HF           //
    Molecular point group: c1
  Multiplicity = 1
  Basis Set: AUG-CC-PVTZ
    Blend: AUG-CC-PVTZ
  Basis Set: (AUG-CC-PVTZ AUX)
    Blend: AUG-CC-PVTZ-JKFIT
  @DF-RHF Final Energy:  -437.75770317506874
    Total Energy =                       -437.7577031750687411
  //            Monomer B HF           //
    Molecular point group: c1

    Geometry (in Angstrom), charge = 0, multiplicity = 1:

       Center              X                  Y                   Z               Mass
    ------------   -----------------  -----------------  -----------------  -----------------
      Gh(C)           1.597728283353     0.163927447806     0.070420705420    12.000000000000
      Gh(S)           0.274378283353     0.717827447806    -1.045549294580    31.972071174400
      Gh(H)          -0.020061716647     1.845377447806    -0.392199294580     1.007825032230
      Gh(H)           1.213588283353    -0.018242552194     1.068470705420     1.007825032230
      Gh(H)           1.964308283353    -0.772152552194    -0.340669294580     1.007825032230
      Gh(H)           2.410388283353     0.882257447806     0.090990705420     1.007825032230
         O           -1.818771716647    -1.495682552194     1.834420705420    15.994914619570
         H           -1.728781716647    -1.056962552194     0.980270705420     1.007825032230
         H           -2.702421716647    -1.866802552194     1.809890705420     1.007825032230

  Charge       = 0
  Multiplicity = 1
  Basis Set: AUG-CC-PVTZ
    Blend: AUG-CC-PVTZ
  Basis Set: (AUG-CC-PVTZ AUX)
    Blend: AUG-CC-PVTZ-JKFIT

    Orbital Energies [Eh]
    ---------------------

    Doubly Occupied:

       1A    -20.568259     2A     -1.351848     3A     -0.714190
       4A     -0.585399     5A     -0.510196

  @DF-RHF Final Energy:   -76.06023867885719

   => Energetics <=

    Nuclear Repulsion Energy =              9.1546744546936498
    One-Electron Energy =                -122.9700377344883009
    Two-Electron Energy =                  37.7551246009374566
    Total Energy =                        -76.0602386788571891

  Dipole Moment: [D]
     X:    -1.3383      Y:     0.1125      Z:    -1.4787     Total:     1.9976

    SAPT Results
  --------------------------------------------------------------------------------------------------------
    Electrostatics                 -2.72976938 [mEh]      -1.71295615 [kcal/mol]      -7.16700852 [kJ/mol]
      Elst10,r                     -2.91448847 [mEh]      -1.82886913 [kcal/mol]      -7.65198843 [kJ/mol]
      Elst12,r                      0.18471909 [mEh]       0.11591298 [kcal/mol]       0.48497991 [kJ/mol]

    Exchange                        0.67537182 [mEh]       0.42380221 [kcal/mol]       1.77318846 [kJ/mol]
      Exch10                        0.60278945 [mEh]       0.37825609 [kcal/mol]       1.58262350 [kJ/mol]
      Exch10(S^2)                   0.60247440 [mEh]       0.37805840 [kcal/mol]       1.58179633 [kJ/mol]
      Exch11(S^2)                   0.02303176 [mEh]       0.01445264 [kcal/mol]       0.06046987 [kJ/mol]
      Exch12(S^2)                   0.04955061 [mEh]       0.03109347 [kcal/mol]       0.13009510 [kJ/mol]

    Induction                      -0.38555450 [mEh]      -0.24193910 [kcal/mol]      -1.01227320 [kJ/mol]
      Ind20,r                      -0.48625343 [mEh]      -0.30512863 [kcal/mol]      -1.27665819 [kJ/mol]
      Ind22                        -0.01575141 [mEh]      -0.00988416 [kcal/mol]      -0.04135531 [kJ/mol]
      Exch-Ind20,r                  0.19098481 [mEh]       0.11984478 [kcal/mol]       0.50143054 [kJ/mol]
      Exch-Ind22                    0.00618665 [mEh]       0.00388218 [kcal/mol]       0.01624304 [kJ/mol]
      delta HF,r (2)               -0.08072113 [mEh]      -0.05065327 [kcal/mol]      -0.21193329 [kJ/mol]

    Dispersion                     -1.15695867 [mEh]      -0.72600253 [kcal/mol]      -3.03759456 [kJ/mol]
      Disp20                       -1.12749496 [mEh]      -0.70751377 [kcal/mol]      -2.96023760 [kJ/mol]
      Disp21                        0.07140020 [mEh]       0.04480430 [kcal/mol]       0.18746120 [kJ/mol]
      Disp22 (SDQ)                  0.03419572 [mEh]       0.02145814 [kcal/mol]       0.08978084 [kJ/mol]
      Disp22 (T)                   -0.18076620 [mEh]      -0.11343251 [kcal/mol]      -0.47460160 [kJ/mol]
      Est. Disp22 (T)              -0.20002683 [mEh]      -0.12551873 [kcal/mol]      -0.52517036 [kJ/mol]
      Exch-Disp20                   0.06496720 [mEh]       0.04076753 [kcal/mol]       0.17057136 [kJ/mol]

  Total HF                         -2.68768876 [mEh]      -1.68655016 [kcal/mol]      -7.05652587 [kJ/mol]
  Total SAPT0                      -3.75021652 [mEh]      -2.35329640 [kcal/mol]      -9.84619212 [kJ/mol]
  Total SAPT2                      -3.50247982 [mEh]      -2.19783927 [kcal/mol]      -9.19575951 [kJ/mol]
  Total SAPT2+                     -3.59691073 [mEh]      -2.25709556 [kcal/mol]      -9.44368782 [kJ/mol]

  Special recipe for scaled SAPT0 (see Manual):
    Electrostatics sSAPT0          -2.91448847 [mEh]      -1.82886913 [kcal/mol]      -7.65198843 [kJ/mol]
    Exchange sSAPT0                 0.60278945 [mEh]       0.37825609 [kcal/mol]       1.58262350 [kJ/mol]
    Induction sSAPT0               -0.37568997 [mEh]      -0.23574902 [kcal/mol]      -0.98637389 [kJ/mol]
    Dispersion sSAPT0              -1.06242579 [mEh]      -0.66668225 [kcal/mol]      -2.78939852 [kJ/mol]
  Total sSAPT0                     -3.74981478 [mEh]      -2.35304430 [kcal/mol]      -9.84513734 [kJ/mol]
  --------------------------------------------------------------------------------------------------------

*** Psi4 exiting successfully. Buy a developer a beer!
