                               Psi4 1.4a2.dev224

  ==> Input File <==

--------------------------------------------------------------------------
#Generated by lconvert.py for sapt job

memory 50 GB

molecule  {
0 1
  C      -3.110210    1.144980   -0.620730
  S      -2.707700   -0.583360   -0.238960
  H      -1.379420   -0.424590   -0.239940
  H      -2.704740    1.438710   -1.583690
  H      -2.748130    1.812570    0.154630
  H      -4.193860    1.210310   -0.661830
--
0 1
  O       1.485740    0.440600   -0.354460
  H       2.079870    0.149710   -1.049530
  H       2.043030    0.467050    0.426210
units angstrom
no_reorient
symmetry c1
}

set {
scf_type DF
basis aug-cc-pvtz
freeze_core True
guess SAD
}
energy('sapt2+')
--------------------------------------------------------------------------

  //              Dimer HF             //
    Molecular point group: c1
  Charge       = 0
  Multiplicity = 1
  Basis Set: AUG-CC-PVTZ
    Blend: AUG-CC-PVTZ
  Basis Set: (AUG-CC-PVTZ AUX)
    Blend: AUG-CC-PVTZ-JKFIT
  @DF-RHF Final Energy:  -513.81975998685300
    Total Energy =                       -513.8197599868530006
  //            Monomer A HF           //
    Molecular point group: c1
  Multiplicity = 1
  Basis Set: AUG-CC-PVTZ
    Blend: AUG-CC-PVTZ
  Basis Set: (AUG-CC-PVTZ AUX)
    Blend: AUG-CC-PVTZ-JKFIT
  @DF-RHF Final Energy:  -437.75760410787638
    Total Energy =                       -437.7576041078764320
  //            Monomer B HF           //
    Molecular point group: c1

    Geometry (in Angstrom), charge = 0, multiplicity = 1:

       Center              X                  Y                   Z               Mass
    ------------   -----------------  -----------------  -----------------  -----------------
      Gh(C)          -1.488033118344     1.041576564635    -0.261175164679    12.000000000000
      Gh(S)          -1.085523118344    -0.686763435365     0.120594835321    31.972071174400
      Gh(H)           0.242756881656    -0.527993435365     0.119614835321     1.007825032230
      Gh(H)          -1.082563118344     1.335306564635    -1.224135164679     1.007825032230
      Gh(H)          -1.125953118344     1.709166564635     0.514184835321     1.007825032230
      Gh(H)          -2.571683118344     1.106906564635    -0.302275164679     1.007825032230
         O            3.107916881656     0.337196564635     0.005094835321    15.994914619570
         H            3.702046881656     0.046306564635    -0.689975164679     1.007825032230
         H            3.665206881656     0.363646564635     0.785764835321     1.007825032230

  Charge       = 0
  Multiplicity = 1
  Basis Set: AUG-CC-PVTZ
    Blend: AUG-CC-PVTZ
  Basis Set: (AUG-CC-PVTZ AUX)
    Blend: AUG-CC-PVTZ-JKFIT

    Orbital Energies [Eh]
    ---------------------

    Doubly Occupied:

       1A    -20.567912     2A     -1.352936     3A     -0.715129
       4A     -0.585947     5A     -0.510383

  @DF-RHF Final Energy:   -76.06040414343259

   => Energetics <=

    Nuclear Repulsion Energy =              9.1742829519792419
    One-Electron Energy =                -123.0047583077767968
    Two-Electron Energy =                  37.7700712123649680
    Total Energy =                        -76.0604041434325922

  Dipole Moment: [D]
     X:     1.9411      Y:    -0.4449      Z:     0.1441     Total:     1.9966

    SAPT Results
  --------------------------------------------------------------------------------------------------------
    Electrostatics                 -1.81601704 [mEh]      -1.13956790 [kcal/mol]      -4.76795208 [kJ/mol]
      Elst10,r                     -1.91559663 [mEh]      -1.20205503 [kcal/mol]      -5.02939825 [kJ/mol]
      Elst12,r                      0.09957959 [mEh]       0.06248713 [kcal/mol]       0.26144617 [kJ/mol]

    Exchange                        0.50199785 [mEh]       0.31500841 [kcal/mol]       1.31799517 [kJ/mol]
      Exch10                        0.43250255 [mEh]       0.27139945 [kcal/mol]       1.13553529 [kJ/mol]
      Exch10(S^2)                   0.43231458 [mEh]       0.27128149 [kcal/mol]       1.13504176 [kJ/mol]
      Exch11(S^2)                   0.00120842 [mEh]       0.00075830 [kcal/mol]       0.00317272 [kJ/mol]
      Exch12(S^2)                   0.06828688 [mEh]       0.04285066 [kcal/mol]       0.17928717 [kJ/mol]

    Induction                      -0.26882741 [mEh]      -0.16869174 [kcal/mol]      -0.70580626 [kJ/mol]
      Ind20,r                      -0.27493977 [mEh]      -0.17252731 [kcal/mol]      -0.72185425 [kJ/mol]
      Ind22                        -0.00023517 [mEh]      -0.00014757 [kcal/mol]      -0.00061745 [kJ/mol]
      Exch-Ind20,r                  0.05755995 [mEh]       0.03611941 [kcal/mol]       0.15112362 [kJ/mol]
      Exch-Ind22                    0.00004923 [mEh]       0.00003090 [kcal/mol]       0.00012927 [kJ/mol]
      delta HF,r (2)               -0.05126165 [mEh]      -0.03216717 [kcal/mol]      -0.13458744 [kJ/mol]

    Dispersion                     -0.87242175 [mEh]      -0.54745291 [kcal/mol]      -2.29054298 [kJ/mol]
      Disp20                       -0.84352261 [mEh]      -0.52931843 [kcal/mol]      -2.21466832 [kJ/mol]
      Disp21                        0.05895606 [mEh]       0.03699549 [kcal/mol]       0.15478912 [kJ/mol]
      Disp22 (SDQ)                  0.01164688 [mEh]       0.00730853 [kcal/mol]       0.03057887 [kJ/mol]
      Disp22 (T)                   -0.13277063 [mEh]      -0.08331483 [kcal/mol]      -0.34858923 [kJ/mol]
      Est. Disp22 (T)              -0.14839523 [mEh]      -0.09311941 [kcal/mol]      -0.38961161 [kJ/mol]
      Exch-Disp20                   0.04889315 [mEh]       0.03068092 [kcal/mol]       0.12836896 [kJ/mol]

  Total HF                         -1.75173554 [mEh]      -1.09923065 [kcal/mol]      -4.59918104 [kJ/mol]
  Total SAPT0                      -2.54636500 [mEh]      -1.59786816 [kcal/mol]      -6.68548040 [kJ/mol]
  Total SAPT2                      -2.37747606 [mEh]      -1.49188875 [kcal/mol]      -6.24206253 [kJ/mol]
  Total SAPT2+                     -2.45526834 [mEh]      -1.54070415 [kcal/mol]      -6.44630615 [kJ/mol]

  Special recipe for scaled SAPT0 (see Manual):
    Electrostatics sSAPT0          -1.91559663 [mEh]      -1.20205503 [kcal/mol]      -5.02939825 [kJ/mol]
    Exchange sSAPT0                 0.43250255 [mEh]       0.27139945 [kcal/mol]       1.13553529 [kJ/mol]
    Induction sSAPT0               -0.26856635 [mEh]      -0.16852793 [kcal/mol]      -0.70512086 [kJ/mol]
    Dispersion sSAPT0              -0.79456566 [mEh]      -0.49859748 [kcal/mol]      -2.08613184 [kJ/mol]
  Total sSAPT0                     -2.54622608 [mEh]      -1.59778099 [kcal/mol]      -6.68511567 [kJ/mol]
  --------------------------------------------------------------------------------------------------------

*** Psi4 exiting successfully. Buy a developer a beer!
