                               Psi4 1.4a2.dev224

  ==> Input File <==

--------------------------------------------------------------------------
#Generated by lconvert.py for sapt job

memory 50 GB

molecule  {
0 1
  C      -3.110210    1.144980   -0.620730
  S      -2.707700   -0.583360   -0.238960
  H      -1.379420   -0.424590   -0.239940
  H      -2.704740    1.438710   -1.583690
  H      -2.748130    1.812570    0.154630
  H      -4.193860    1.210310   -0.661830
--
0 1
  O       2.146940    0.640260   -0.380890
  H       2.741060    0.349360   -1.075960
  H       2.704230    0.666710    0.399780
units angstrom
no_reorient
symmetry c1
}

set {
scf_type DF
basis aug-cc-pvtz
freeze_core True
guess SAD
}
energy('sapt2+')
--------------------------------------------------------------------------

  //              Dimer HF             //
    Molecular point group: c1
  Charge       = 0
  Multiplicity = 1
  Basis Set: AUG-CC-PVTZ
    Blend: AUG-CC-PVTZ
  Basis Set: (AUG-CC-PVTZ AUX)
    Blend: AUG-CC-PVTZ-JKFIT
  @DF-RHF Final Energy:  -513.81908494190179
    Total Energy =                       -513.8190849419017923
  //            Monomer A HF           //
    Molecular point group: c1
  Multiplicity = 1
  Basis Set: AUG-CC-PVTZ
    Blend: AUG-CC-PVTZ
  Basis Set: (AUG-CC-PVTZ AUX)
    Blend: AUG-CC-PVTZ-JKFIT
  @DF-RHF Final Energy:  -437.75760039981299
    Total Energy =                       -437.7576003998129863
  //            Monomer B HF           //
    Molecular point group: c1

    Geometry (in Angstrom), charge = 0, multiplicity = 1:

       Center              X                  Y                   Z               Mass
    ------------   -----------------  -----------------  -----------------  -----------------
      Gh(C)          -1.668427986681     0.987103532346    -0.253964274774    12.000000000000
      Gh(S)          -1.265917986681    -0.741236467654     0.127805725226    31.972071174400
      Gh(H)           0.062362013319    -0.582466467654     0.126825725226     1.007825032230
      Gh(H)          -1.262957986681     1.280833532346    -1.216924274774     1.007825032230
      Gh(H)          -1.306347986681     1.654693532346     0.521395725226     1.007825032230
      Gh(H)          -2.752077986681     1.052433532346    -0.295064274774     1.007825032230
         O            3.588722013319     0.482383532346    -0.014124274774    15.994914619570
         H            4.182842013319     0.191483532346    -0.709194274774     1.007825032230
         H            4.146012013319     0.508833532346     0.766545725226     1.007825032230

  Charge       = 0
  Multiplicity = 1
  Basis Set: AUG-CC-PVTZ
    Blend: AUG-CC-PVTZ
  Basis Set: (AUG-CC-PVTZ AUX)
    Blend: AUG-CC-PVTZ-JKFIT

    Orbital Energies [Eh]
    ---------------------

    Doubly Occupied:

       1A    -20.567938     2A     -1.352955     3A     -0.715149
       4A     -0.585959     5A     -0.510391

  @DF-RHF Final Energy:   -76.06039289796330

   => Energetics <=

    Nuclear Repulsion Energy =              9.1742970508264463
    One-Electron Energy =                -123.0045948313346713
    Two-Electron Energy =                  37.7699048825449424
    Total Energy =                        -76.0603928979632826

  Dipole Moment: [D]
     X:     1.9417      Y:    -0.4454      Z:     0.1442     Total:     1.9974

    SAPT Results
  --------------------------------------------------------------------------------------------------------
    Electrostatics                 -0.96279652 [mEh]      -0.60416394 [kcal/mol]      -2.52782192 [kJ/mol]
      Elst10,r                     -1.04677456 [mEh]      -0.65686095 [kcal/mol]      -2.74830622 [kJ/mol]
      Elst12,r                      0.08397803 [mEh]       0.05269701 [kcal/mol]       0.22048430 [kJ/mol]

    Exchange                        0.04362433 [mEh]       0.02737468 [kcal/mol]       0.11453567 [kJ/mol]
      Exch10                        0.03579359 [mEh]       0.02246082 [kcal/mol]       0.09397606 [kJ/mol]
      Exch10(S^2)                   0.03579201 [mEh]       0.02245983 [kcal/mol]       0.09397192 [kJ/mol]
      Exch11(S^2)                  -0.00044785 [mEh]      -0.00028103 [kcal/mol]      -0.00117582 [kJ/mol]
      Exch12(S^2)                   0.00827859 [mEh]       0.00519489 [kcal/mol]       0.02173543 [kJ/mol]

    Induction                      -0.07683747 [mEh]      -0.04821624 [kcal/mol]      -0.20173675 [kJ/mol]
      Ind20,r                      -0.07973787 [mEh]      -0.05003627 [kcal/mol]      -0.20935176 [kJ/mol]
      Ind22                         0.00401197 [mEh]       0.00251755 [kcal/mol]       0.01053342 [kJ/mol]
      Exch-Ind20,r                  0.00370235 [mEh]       0.00232326 [kcal/mol]       0.00972052 [kJ/mol]
      Exch-Ind22                   -0.00018628 [mEh]      -0.00011689 [kcal/mol]      -0.00048908 [kJ/mol]
      delta HF,r (2)               -0.00462763 [mEh]      -0.00290388 [kcal/mol]      -0.01214985 [kJ/mol]

    Dispersion                     -0.30222733 [mEh]      -0.18965051 [kcal/mol]      -0.79349774 [kJ/mol]
      Disp20                       -0.28673577 [mEh]      -0.17992941 [kcal/mol]      -0.75282465 [kJ/mol]
      Disp21                        0.02767742 [mEh]       0.01736784 [kcal/mol]       0.07266706 [kJ/mol]
      Disp22 (SDQ)                  0.00365792 [mEh]       0.00229538 [kcal/mol]       0.00960386 [kJ/mol]
      Disp22 (T)                   -0.04821565 [mEh]      -0.03025578 [kcal/mol]      -0.12659017 [kJ/mol]
      Est. Disp22 (T)              -0.05173053 [mEh]      -0.03246139 [kcal/mol]      -0.13581848 [kJ/mol]
      Exch-Disp20                   0.00490363 [mEh]       0.00307707 [kcal/mol]       0.01287447 [kJ/mol]

  Total HF                         -1.09164413 [mEh]      -0.68501703 [kcal/mol]      -2.86611126 [kJ/mol]
  Total SAPT0                      -1.37347627 [mEh]      -0.86186937 [kcal/mol]      -3.60606144 [kJ/mol]
  Total SAPT2                      -1.27784180 [mEh]      -0.80185784 [kcal/mol]      -3.35497319 [kJ/mol]
  Total SAPT2+                     -1.29823699 [mEh]      -0.81465601 [kcal/mol]      -3.40852075 [kJ/mol]

  Special recipe for scaled SAPT0 (see Manual):
    Electrostatics sSAPT0          -1.04677456 [mEh]      -0.65686095 [kcal/mol]      -2.74830622 [kJ/mol]
    Exchange sSAPT0                 0.03579359 [mEh]       0.02246082 [kcal/mol]       0.09397606 [kJ/mol]
    Induction sSAPT0               -0.08066267 [mEh]      -0.05061659 [kcal/mol]      -0.21177981 [kJ/mol]
    Dispersion sSAPT0              -0.28183149 [mEh]      -0.17685193 [kcal/mol]      -0.73994849 [kJ/mol]
  Total sSAPT0                     -1.37347513 [mEh]      -0.86186866 [kcal/mol]      -3.60605846 [kJ/mol]
  --------------------------------------------------------------------------------------------------------

*** Psi4 exiting successfully. Buy a developer a beer!
