                               Psi4 1.4a2.dev224

  ==> Input File <==

--------------------------------------------------------------------------
#Generated by lconvert.py for sapt job

memory 50 GB

molecule  {
0 1
  C      -3.110210    1.144980   -0.620730
  S      -2.707700   -0.583360   -0.238960
  H      -1.379420   -0.424590   -0.239940
  H      -2.704740    1.438710   -1.583690
  H      -2.748130    1.812570    0.154630
  H      -4.193860    1.210310   -0.661830
--
0 1
  O       2.808130    0.839920   -0.407320
  H       3.402260    0.549020   -1.102390
  H       3.365420    0.866370    0.373350
units angstrom
no_reorient
symmetry c1
}

set {
scf_type DF
basis aug-cc-pvtz
freeze_core True
guess SAD
}
energy('sapt2+')
--------------------------------------------------------------------------

  //              Dimer HF             //
    Molecular point group: c1
  Charge       = 0
  Multiplicity = 1
  Basis Set: AUG-CC-PVTZ
    Blend: AUG-CC-PVTZ
  Basis Set: (AUG-CC-PVTZ AUX)
    Blend: AUG-CC-PVTZ-JKFIT
  @DF-RHF Final Energy:  -513.81867812223152
    Total Energy =                       -513.8186781222314039
  //            Monomer A HF           //
    Molecular point group: c1
  Multiplicity = 1
  Basis Set: AUG-CC-PVTZ
    Blend: AUG-CC-PVTZ
  Basis Set: (AUG-CC-PVTZ AUX)
    Blend: AUG-CC-PVTZ-JKFIT
  @DF-RHF Final Energy:  -437.75759778006477
    Total Energy =                       -437.7575977800647138
  //            Monomer B HF           //
    Molecular point group: c1

    Geometry (in Angstrom), charge = 0, multiplicity = 1:

       Center              X                  Y                   Z               Mass
    ------------   -----------------  -----------------  -----------------  -----------------
      Gh(C)          -1.848820432057     0.932630347388    -0.246753384869    12.000000000000
      Gh(S)          -1.446310432057    -0.795709652612     0.135016615131    31.972071174400
      Gh(H)          -0.118030432057    -0.636939652612     0.134036615131     1.007825032230
      Gh(H)          -1.443350432057     1.226360347388    -1.209713384869     1.007825032230
      Gh(H)          -1.486740432057     1.600220347388     0.528606615131     1.007825032230
      Gh(H)          -2.932470432057     0.997960347388    -0.287853384869     1.007825032230
         O            4.069519567943     0.627570347388    -0.033343384869    15.994914619570
         H            4.663649567943     0.336670347388    -0.728413384869     1.007825032230
         H            4.626809567943     0.654020347388     0.747326615131     1.007825032230

  Charge       = 0
  Multiplicity = 1
  Basis Set: AUG-CC-PVTZ
    Blend: AUG-CC-PVTZ
  Basis Set: (AUG-CC-PVTZ AUX)
    Blend: AUG-CC-PVTZ-JKFIT

    Orbital Energies [Eh]
    ---------------------

    Doubly Occupied:

       1A    -20.567938     2A     -1.352954     3A     -0.715146
       4A     -0.585958     5A     -0.510390

  @DF-RHF Final Energy:   -76.06038916617919

   => Energetics <=

    Nuclear Repulsion Energy =              9.1742685252979079
    One-Electron Energy =                -123.0045407419575980
    Two-Electron Energy =                  37.7698830504805017
    Total Energy =                        -76.0603891661791920

  Dipole Moment: [D]
     X:     1.9416      Y:    -0.4456      Z:     0.1443     Total:     1.9973

    SAPT Results
  --------------------------------------------------------------------------------------------------------
    Electrostatics                 -0.59974780 [mEh]      -0.37634743 [kcal/mol]      -1.57463763 [kJ/mol]
      Elst10,r                     -0.66177035 [mEh]      -0.41526716 [kcal/mol]      -1.73747781 [kJ/mol]
      Elst12,r                      0.06202255 [mEh]       0.03891974 [kcal/mol]       0.16284018 [kJ/mol]

    Exchange                        0.00369808 [mEh]       0.00232058 [kcal/mol]       0.00970931 [kJ/mol]
      Exch10                        0.00289476 [mEh]       0.00181649 [kcal/mol]       0.00760018 [kJ/mol]
      Exch10(S^2)                   0.00289474 [mEh]       0.00181648 [kcal/mol]       0.00760015 [kJ/mol]
      Exch11(S^2)                  -0.00008185 [mEh]      -0.00005136 [kcal/mol]      -0.00021489 [kJ/mol]
      Exch12(S^2)                   0.00088517 [mEh]       0.00055545 [kcal/mol]       0.00232402 [kJ/mol]

    Induction                      -0.03007002 [mEh]      -0.01886922 [kcal/mol]      -0.07894882 [kJ/mol]
      Ind20,r                      -0.03191850 [mEh]      -0.02002916 [kcal/mol]      -0.08380200 [kJ/mol]
      Ind22                         0.00224716 [mEh]       0.00141012 [kcal/mol]       0.00589993 [kJ/mol]
      Exch-Ind20,r                  0.00023843 [mEh]       0.00014962 [kcal/mol]       0.00062600 [kJ/mol]
      Exch-Ind22                   -0.00001679 [mEh]      -0.00001053 [kcal/mol]      -0.00004407 [kJ/mol]
      delta HF,r (2)               -0.00062033 [mEh]      -0.00038926 [kcal/mol]      -0.00162868 [kJ/mol]

    Dispersion                     -0.12329180 [mEh]      -0.07736677 [kcal/mol]      -0.32370258 [kJ/mol]
      Disp20                       -0.11797533 [mEh]      -0.07403064 [kcal/mol]      -0.30974420 [kJ/mol]
      Disp21                        0.01417737 [mEh]       0.00889643 [kcal/mol]       0.03722268 [kJ/mol]
      Disp22 (SDQ)                  0.00158375 [mEh]       0.00099382 [kcal/mol]       0.00415813 [kJ/mol]
      Disp22 (T)                   -0.02066054 [mEh]      -0.01296469 [kcal/mol]      -0.05424425 [kJ/mol]
      Est. Disp22 (T)              -0.02153835 [mEh]      -0.01351552 [kcal/mol]      -0.05654894 [kJ/mol]
      Exch-Disp20                   0.00046077 [mEh]       0.00028913 [kcal/mol]       0.00120974 [kJ/mol]

  Total HF                         -0.69117599 [mEh]      -0.43371948 [kcal/mol]      -1.81468231 [kJ/mol]
  Total SAPT0                      -0.80869056 [mEh]      -0.50746099 [kcal/mol]      -2.12321676 [kJ/mol]
  Total SAPT2                      -0.74363431 [mEh]      -0.46663757 [kcal/mol]      -1.95241161 [kJ/mol]
  Total SAPT2+                     -0.74941154 [mEh]      -0.47026284 [kcal/mol]      -1.96757973 [kJ/mol]

  Special recipe for scaled SAPT0 (see Manual):
    Electrostatics sSAPT0          -0.66177035 [mEh]      -0.41526716 [kcal/mol]      -1.73747781 [kJ/mol]
    Exchange sSAPT0                 0.00289476 [mEh]       0.00181649 [kcal/mol]       0.00760018 [kJ/mol]
    Induction sSAPT0               -0.03230040 [mEh]      -0.02026880 [kcal/mol]      -0.08480468 [kJ/mol]
    Dispersion sSAPT0              -0.11751457 [mEh]      -0.07374151 [kcal/mol]      -0.30853446 [kJ/mol]
  Total sSAPT0                     -0.80869056 [mEh]      -0.50746099 [kcal/mol]      -2.12321676 [kJ/mol]
  --------------------------------------------------------------------------------------------------------

*** Psi4 exiting successfully. Buy a developer a beer!
