                               Psi4 1.4a2.dev224

  ==> Input File <==

--------------------------------------------------------------------------
#Generated by lconvert.py for sapt job

memory 50 GB

molecule  {
0 1
  C       0.794820   -0.002740   -0.413600
  S       0.780280    1.808500   -0.282020
  H       1.198610    1.874300    0.985120
  H       0.053820   -0.448810    0.243540
  H       0.541250   -0.232540   -1.444970
  H       1.782470   -0.400100   -0.203580
--
0 1
  C      -4.860660    0.041950   -0.200900
  S      -4.524450    0.139770    1.579700
  H      -3.512980    1.009900    1.474230
  H      -3.997640   -0.331720   -0.743780
  H      -5.158920    1.007540   -0.596230
  H      -5.682350   -0.658180   -0.323260
units angstrom
no_reorient
symmetry c1
}

set {
scf_type DF
basis aug-cc-pvtz
freeze_core True
guess SAD
}
energy('sapt2+')
--------------------------------------------------------------------------

  //              Dimer HF             //
    Molecular point group: c1
  Charge       = 0
  Multiplicity = 1
  Basis Set: AUG-CC-PVTZ
    Blend: AUG-CC-PVTZ
  Basis Set: (AUG-CC-PVTZ AUX)
    Blend: AUG-CC-PVTZ-JKFIT
  @DF-RHF Final Energy:  -875.51560329097015
    Total Energy =                       -875.5156032909701480
  //            Monomer A HF           //
    Molecular point group: c1
  Multiplicity = 1
  Basis Set: AUG-CC-PVTZ
    Blend: AUG-CC-PVTZ
  Basis Set: (AUG-CC-PVTZ AUX)
    Blend: AUG-CC-PVTZ-JKFIT
  @DF-RHF Final Energy:  -437.75763174297288
    Total Energy =                       -437.7576317429728761
  //            Monomer B HF           //
    Molecular point group: c1

    Geometry (in Angstrom), charge = 0, multiplicity = 1:

       Center              X                  Y                   Z               Mass
    ------------   -----------------  -----------------  -----------------  -----------------
      Gh(C)           2.705001570498    -0.675561303625    -0.762552808054    12.000000000000
      Gh(S)           2.690461570498     1.135678696375    -0.630972808054    31.972071174400
      Gh(H)           3.108791570498     1.201478696375     0.636167191946     1.007825032230
      Gh(H)           1.964001570498    -1.121631303625    -0.105412808054     1.007825032230
      Gh(H)           2.451431570498    -0.905361303625    -1.793922808054     1.007825032230
      Gh(H)           3.692651570498    -1.072921303625    -0.552532808054     1.007825032230
         C           -2.950478429502    -0.630871303625    -0.549852808054    12.000000000000
         S           -2.614268429502    -0.533051303625     1.230747191946    31.972071174400
         H           -1.602798429502     0.337078696375     1.125277191946     1.007825032230
         H           -2.087458429502    -1.004541303625    -1.092732808054     1.007825032230
         H           -3.248738429502     0.334718696375    -0.945182808054     1.007825032230
         H           -3.772168429502    -1.331001303625    -0.672212808054     1.007825032230

  Charge       = 0
  Multiplicity = 1
  Basis Set: AUG-CC-PVTZ
    Blend: AUG-CC-PVTZ
  Basis Set: (AUG-CC-PVTZ AUX)
    Blend: AUG-CC-PVTZ-JKFIT

    Orbital Energies [Eh]
    ---------------------

    Doubly Occupied:

       1A    -91.953535     2A    -11.257076     3A     -8.954690
       4A     -6.636070     5A     -6.635073     6A     -6.633987
       7A     -1.038824     8A     -0.867043     9A     -0.609322
      10A     -0.592813    11A     -0.527078    12A     -0.461409
      13A     -0.357320

  @DF-RHF Final Energy:  -437.75750482268006

   => Energetics <=

    Nuclear Repulsion Energy =             56.4510407545262751
    One-Electron Energy =                -715.3686102221706733
    Two-Electron Energy =                 221.1600646449643364
    Total Energy =                       -437.7575048226800618

  Dipole Moment: [D]
     X:     0.2802      Y:     0.4062      Z:    -1.5969     Total:     1.6714

    SAPT Results
  --------------------------------------------------------------------------------------------------------
    Electrostatics                 -0.43858653 [mEh]      -0.27521720 [kcal/mol]      -1.15150877 [kJ/mol]
      Elst10,r                     -0.46013577 [mEh]      -0.28873955 [kcal/mol]      -1.20808629 [kJ/mol]
      Elst12,r                      0.02154924 [mEh]       0.01352235 [kcal/mol]       0.05657753 [kJ/mol]

    Exchange                        0.02304847 [mEh]       0.01446313 [kcal/mol]       0.06051374 [kJ/mol]
      Exch10                        0.01994470 [mEh]       0.01251549 [kcal/mol]       0.05236481 [kJ/mol]
      Exch10(S^2)                   0.01994433 [mEh]       0.01251526 [kcal/mol]       0.05236383 [kJ/mol]
      Exch11(S^2)                   0.00109914 [mEh]       0.00068972 [kcal/mol]       0.00288578 [kJ/mol]
      Exch12(S^2)                   0.00200463 [mEh]       0.00125792 [kcal/mol]       0.00526314 [kJ/mol]

    Induction                      -0.02647871 [mEh]      -0.01661564 [kcal/mol]      -0.06951984 [kJ/mol]
      Ind20,r                      -0.02760929 [mEh]      -0.01732509 [kcal/mol]      -0.07248819 [kJ/mol]
      Ind22                         0.00006471 [mEh]       0.00004061 [kcal/mol]       0.00016991 [kJ/mol]
      Exch-Ind20,r                  0.00391305 [mEh]       0.00245548 [kcal/mol]       0.01027372 [kJ/mol]
      Exch-Ind22                   -0.00000917 [mEh]      -0.00000576 [kcal/mol]      -0.00002408 [kJ/mol]
      delta HF,r (2)               -0.00283801 [mEh]      -0.00178088 [kcal/mol]      -0.00745119 [kJ/mol]

    Dispersion                     -0.47059742 [mEh]      -0.29530434 [kcal/mol]      -1.23555334 [kJ/mol]
      Disp20                       -0.49493732 [mEh]      -0.31057786 [kcal/mol]      -1.29945775 [kJ/mol]
      Disp21                        0.08215506 [mEh]       0.05155308 [kcal/mol]       0.21569808 [kJ/mol]
      Disp22 (SDQ)                  0.02401199 [mEh]       0.01506775 [kcal/mol]       0.06304346 [kJ/mol]
      Disp22 (T)                   -0.08193832 [mEh]      -0.05141707 [kcal/mol]      -0.21512902 [kJ/mol]
      Est. Disp22 (T)              -0.08597947 [mEh]      -0.05395293 [kcal/mol]      -0.22573906 [kJ/mol]
      Exch-Disp20                   0.00415232 [mEh]       0.00260562 [kcal/mol]       0.01090192 [kJ/mol]

  Total HF                         -0.46672532 [mEh]      -0.29287456 [kcal/mol]      -1.22538715 [kJ/mol]
  Total SAPT0                      -0.95751031 [mEh]      -0.60084679 [kcal/mol]      -2.51394298 [kJ/mol]
  Total SAPT2                      -0.93280176 [mEh]      -0.58534194 [kcal/mol]      -2.44907069 [kJ/mol]
  Total SAPT2+                     -0.91261419 [mEh]      -0.57267405 [kcal/mol]      -2.39606821 [kJ/mol]

  Special recipe for scaled SAPT0 (see Manual):
    Electrostatics sSAPT0          -0.46013577 [mEh]      -0.28873955 [kcal/mol]      -1.20808629 [kJ/mol]
    Exchange sSAPT0                 0.01994470 [mEh]       0.01251549 [kcal/mol]       0.05236481 [kJ/mol]
    Induction sSAPT0               -0.02653403 [mEh]      -0.01665036 [kcal/mol]      -0.06966509 [kJ/mol]
    Dispersion sSAPT0              -0.49078476 [mEh]      -0.30797209 [kcal/mol]      -1.28855521 [kJ/mol]
  Total sSAPT0                     -0.95750986 [mEh]      -0.60084651 [kcal/mol]      -2.51394179 [kJ/mol]
  --------------------------------------------------------------------------------------------------------

*** Psi4 exiting successfully. Buy a developer a beer!
