                               Psi4 1.4a2.dev224

  ==> Input File <==

--------------------------------------------------------------------------
#Generated by lconvert.py for sapt job

memory 50 GB

molecule  {
0 1
  C       0.794820   -0.002740   -0.413600
  S       0.780280    1.808500   -0.282020
  H       1.198610    1.874300    0.985120
  H       0.053820   -0.448810    0.243540
  H       0.541250   -0.232540   -1.444970
  H       1.782470   -0.400100   -0.203580
--
0 1
  C      -5.705640   -0.129350    0.002060
  S      -5.369430   -0.031530    1.782670
  H      -4.357960    0.838600    1.677200
  H      -4.842620   -0.503020   -0.540810
  H      -6.003900    0.836240   -0.393260
  H      -6.527330   -0.829480   -0.120290
units angstrom
no_reorient
symmetry c1
}

set {
scf_type DF
basis aug-cc-pvtz
freeze_core True
guess SAD
}
energy('sapt2+')
--------------------------------------------------------------------------

  //              Dimer HF             //
    Molecular point group: c1
  Charge       = 0
  Multiplicity = 1
  Basis Set: AUG-CC-PVTZ
    Blend: AUG-CC-PVTZ
  Basis Set: (AUG-CC-PVTZ AUX)
    Blend: AUG-CC-PVTZ-JKFIT
  @DF-RHF Final Energy:  -875.51538447470625
    Total Energy =                       -875.5153844747062521
  //            Monomer A HF           //
    Molecular point group: c1
  Multiplicity = 1
  Basis Set: AUG-CC-PVTZ
    Blend: AUG-CC-PVTZ
  Basis Set: (AUG-CC-PVTZ AUX)
    Blend: AUG-CC-PVTZ-JKFIT
  @DF-RHF Final Energy:  -437.75762427405130
    Total Energy =                       -437.7576242740512953
  //            Monomer B HF           //
    Molecular point group: c1

    Geometry (in Angstrom), charge = 0, multiplicity = 1:

       Center              X                  Y                   Z               Mass
    ------------   -----------------  -----------------  -----------------  -----------------
      Gh(C)           3.127491570498    -0.589911303625    -0.864036558142    12.000000000000
      Gh(S)           3.112951570498     1.221328696375    -0.732456558142    31.972071174400
      Gh(H)           3.531281570498     1.287128696375     0.534683441858     1.007825032230
      Gh(H)           2.386491570498    -1.035981303625    -0.206896558142     1.007825032230
      Gh(H)           2.873921570498    -0.819711303625    -1.895406558142     1.007825032230
      Gh(H)           4.115141570498    -0.987271303625    -0.654016558142     1.007825032230
         C           -3.372968429502    -0.716521303625    -0.448376558142    12.000000000000
         S           -3.036758429502    -0.618701303625     1.332233441858    31.972071174400
         H           -2.025288429502     0.251428696375     1.226763441858     1.007825032230
         H           -2.509948429502    -1.090191303625    -0.991246558142     1.007825032230
         H           -3.671228429502     0.249068696375    -0.843696558142     1.007825032230
         H           -4.194658429502    -1.416651303625    -0.570726558142     1.007825032230

  Charge       = 0
  Multiplicity = 1
  Basis Set: AUG-CC-PVTZ
    Blend: AUG-CC-PVTZ
  Basis Set: (AUG-CC-PVTZ AUX)
    Blend: AUG-CC-PVTZ-JKFIT

    Orbital Energies [Eh]
    ---------------------

    Doubly Occupied:

       1A    -91.953528     2A    -11.257077     3A     -8.954692
       4A     -6.636072     5A     -6.635075     6A     -6.633989
       7A     -1.038826     8A     -0.867047     9A     -0.609325
      10A     -0.592818    11A     -0.527079    12A     -0.461410
      13A     -0.357324

  @DF-RHF Final Energy:  -437.75749957266225

   => Energetics <=

    Nuclear Repulsion Energy =             56.4509116468952215
    One-Electron Energy =                -715.3682949855026436
    Two-Electron Energy =                 221.1598837659451817
    Total Energy =                       -437.7574995726622546

  Dipole Moment: [D]
     X:     0.2802      Y:     0.4063      Z:    -1.5970     Total:     1.6715

    SAPT Results
  --------------------------------------------------------------------------------------------------------
    Electrostatics                 -0.23732830 [mEh]      -0.14892576 [kcal/mol]      -0.62310537 [kJ/mol]
      Elst10,r                     -0.25353945 [mEh]      -0.15909841 [kcal/mol]      -0.66566774 [kJ/mol]
      Elst12,r                      0.01621115 [mEh]       0.01017265 [kcal/mol]       0.04256237 [kJ/mol]

    Exchange                        0.00135385 [mEh]       0.00084955 [kcal/mol]       0.00355453 [kJ/mol]
      Exch10                        0.00114770 [mEh]       0.00072019 [kcal/mol]       0.00301329 [kJ/mol]
      Exch10(S^2)                   0.00114770 [mEh]       0.00072019 [kcal/mol]       0.00301329 [kJ/mol]
      Exch11(S^2)                   0.00005718 [mEh]       0.00003588 [kcal/mol]       0.00015013 [kJ/mol]
      Exch12(S^2)                   0.00014897 [mEh]       0.00009348 [kcal/mol]       0.00039111 [kJ/mol]

    Induction                      -0.00793338 [mEh]      -0.00497827 [kcal/mol]      -0.02082908 [kJ/mol]
      Ind20,r                      -0.00835336 [mEh]      -0.00524181 [kcal/mol]      -0.02193175 [kJ/mol]
      Ind22                         0.00031039 [mEh]       0.00019477 [kcal/mol]       0.00081492 [kJ/mol]
      Exch-Ind20,r                  0.00020240 [mEh]       0.00012701 [kcal/mol]       0.00053141 [kJ/mol]
      Exch-Ind22                   -0.00000752 [mEh]      -0.00000472 [kcal/mol]      -0.00001975 [kJ/mol]
      delta HF,r (2)               -0.00008528 [mEh]      -0.00005351 [kcal/mol]      -0.00022390 [kJ/mol]

    Dispersion                     -0.18003821 [mEh]      -0.11297568 [kcal/mol]      -0.47269026 [kJ/mol]
      Disp20                       -0.19229944 [mEh]      -0.12066972 [kcal/mol]      -0.50488210 [kJ/mol]
      Disp21                        0.03630363 [mEh]       0.02278087 [kcal/mol]       0.09531516 [kJ/mol]
      Disp22 (SDQ)                  0.00941112 [mEh]       0.00590557 [kcal/mol]       0.02470889 [kJ/mol]
      Disp22 (T)                   -0.03277102 [mEh]      -0.02056413 [kcal/mol]      -0.08604031 [kJ/mol]
      Est. Disp22 (T)              -0.03374270 [mEh]      -0.02117386 [kcal/mol]      -0.08859144 [kJ/mol]
      Exch-Disp20                   0.00028918 [mEh]       0.00018146 [kcal/mol]       0.00075923 [kJ/mol]

  Total HF                         -0.26062799 [mEh]      -0.16354653 [kcal/mol]      -0.68427870 [kJ/mol]
  Total SAPT0                      -0.45263825 [mEh]      -0.28403479 [kcal/mol]      -1.18840157 [kJ/mol]
  Total SAPT2                      -0.43591809 [mEh]      -0.27354273 [kcal/mol]      -1.14450278 [kJ/mol]
  Total SAPT2+                     -0.42394604 [mEh]      -0.26603016 [kcal/mol]      -1.11307017 [kJ/mol]

  Special recipe for scaled SAPT0 (see Manual):
    Electrostatics sSAPT0          -0.25353945 [mEh]      -0.15909841 [kcal/mol]      -0.66566774 [kJ/mol]
    Exchange sSAPT0                 0.00114770 [mEh]       0.00072019 [kcal/mol]       0.00301329 [kJ/mol]
    Induction sSAPT0               -0.00823624 [mEh]      -0.00516832 [kcal/mol]      -0.02162425 [kJ/mol]
    Dispersion sSAPT0              -0.19201026 [mEh]      -0.12048826 [kcal/mol]      -0.50412287 [kJ/mol]
  Total sSAPT0                     -0.45263825 [mEh]      -0.28403479 [kcal/mol]      -1.18840157 [kJ/mol]
  --------------------------------------------------------------------------------------------------------

*** Psi4 exiting successfully. Buy a developer a beer!
