                               Psi4 1.4a2.dev224

  ==> Input File <==

--------------------------------------------------------------------------
#Generated by lconvert.py for sapt job

memory 50 GB

molecule  {
0 1
  C       0.794820   -0.002740   -0.413600
  S       0.780280    1.808500   -0.282020
  H       1.198610    1.874300    0.985120
  H       0.053820   -0.448810    0.243540
  H       0.541250   -0.232540   -1.444970
  H       1.782470   -0.400100   -0.203580
--
0 1
  C      -4.015680    0.213250   -0.403870
  S      -3.679470    0.311070    1.376730
  H      -2.668000    1.181200    1.271270
  H      -3.152660   -0.160420   -0.946740
  H      -4.313940    1.178840   -0.799190
  H      -4.837370   -0.486880   -0.526220
units angstrom
no_reorient
symmetry c1
}

set {
scf_type DF
basis aug-cc-pvtz
freeze_core True
guess SAD
}
energy('sapt2+')
--------------------------------------------------------------------------

  //              Dimer HF             //
    Molecular point group: c1
  Charge       = 0
  Multiplicity = 1
  Basis Set: AUG-CC-PVTZ
    Blend: AUG-CC-PVTZ
  Basis Set: (AUG-CC-PVTZ AUX)
    Blend: AUG-CC-PVTZ-JKFIT
  @DF-RHF Final Energy:  -875.51599130350621
    Total Energy =                       -875.5159913035062118
  //            Monomer A HF           //
    Molecular point group: c1
  Multiplicity = 1
  Basis Set: AUG-CC-PVTZ
    Blend: AUG-CC-PVTZ
  Basis Set: (AUG-CC-PVTZ AUX)
    Blend: AUG-CC-PVTZ-JKFIT
  @DF-RHF Final Energy:  -437.75765120195553
    Total Energy =                       -437.7576512019555821
  //            Monomer B HF           //
    Molecular point group: c1

    Geometry (in Angstrom), charge = 0, multiplicity = 1:

       Center              X                  Y                   Z               Mass
    ------------   -----------------  -----------------  -----------------  -----------------
      Gh(C)           2.282511570498    -0.761211303625    -0.661068227952    12.000000000000
      Gh(S)           2.267971570498     1.050028696375    -0.529488227952    31.972071174400
      Gh(H)           2.686301570498     1.115828696375     0.737651772048     1.007825032230
      Gh(H)           1.541511570498    -1.207281303625    -0.003928227952     1.007825032230
      Gh(H)           2.028941570498    -0.991011303625    -1.692438227952     1.007825032230
      Gh(H)           3.270161570498    -1.158571303625    -0.451048227952     1.007825032230
         C           -2.527988429502    -0.545221303625    -0.651338227952    12.000000000000
         S           -2.191778429502    -0.447401303625     1.129261772048    31.972071174400
         H           -1.180308429502     0.422728696375     1.023801772048     1.007825032230
         H           -1.664968429502    -0.918891303625    -1.194208227952     1.007825032230
         H           -2.826248429502     0.420368696375    -1.046658227952     1.007825032230
         H           -3.349678429502    -1.245351303625    -0.773688227952     1.007825032230

  Charge       = 0
  Multiplicity = 1
  Basis Set: AUG-CC-PVTZ
    Blend: AUG-CC-PVTZ
  Basis Set: (AUG-CC-PVTZ AUX)
    Blend: AUG-CC-PVTZ-JKFIT

    Orbital Energies [Eh]
    ---------------------

    Doubly Occupied:

       1A    -91.953552     2A    -11.257069     3A     -8.954682
       4A     -6.636062     5A     -6.635067     6A     -6.633979
       7A     -1.038813     8A     -0.867033     9A     -0.609313
      10A     -0.592809    11A     -0.527068    12A     -0.461398
      13A     -0.357316

  @DF-RHF Final Energy:  -437.75751786481732

   => Energetics <=

    Nuclear Repulsion Energy =             56.4511055174728327
    One-Electron Energy =                -715.3689224078844973
    Two-Electron Energy =                 221.1602990255943837
    Total Energy =                       -437.7575178648173164

  Dipole Moment: [D]
     X:     0.2803      Y:     0.4061      Z:    -1.5968     Total:     1.6713

    SAPT Results
  --------------------------------------------------------------------------------------------------------
    Electrostatics                 -1.01204444 [mEh]      -0.63506747 [kcal/mol]      -2.65712230 [kJ/mol]
      Elst10,r                     -1.02163140 [mEh]      -0.64108338 [kcal/mol]      -2.68229286 [kJ/mol]
      Elst12,r                      0.00958696 [mEh]       0.00601591 [kcal/mol]       0.02517056 [kJ/mol]

    Exchange                        0.37738786 [mEh]       0.23681446 [kcal/mol]       0.99083169 [kJ/mol]
      Exch10                        0.33528623 [mEh]       0.21039529 [kcal/mol]       0.88029388 [kJ/mol]
      Exch10(S^2)                   0.33520068 [mEh]       0.21034160 [kcal/mol]       0.88006925 [kJ/mol]
      Exch11(S^2)                   0.01997081 [mEh]       0.01253187 [kcal/mol]       0.05243335 [kJ/mol]
      Exch12(S^2)                   0.02213082 [mEh]       0.01388730 [kcal/mol]       0.05810447 [kJ/mol]

    Induction                      -0.14067926 [mEh]      -0.08827757 [kcal/mol]      -0.36935334 [kJ/mol]
      Ind20,r                      -0.16398329 [mEh]      -0.10290107 [kcal/mol]      -0.43053806 [kJ/mol]
      Ind22                        -0.00870179 [mEh]      -0.00546046 [kcal/mol]      -0.02284655 [kJ/mol]
      Exch-Ind20,r                  0.07376038 [mEh]       0.04628534 [kcal/mol]       0.19365784 [kJ/mol]
      Exch-Ind22                    0.00391410 [mEh]       0.00245614 [kcal/mol]       0.01027648 [kJ/mol]
      delta HF,r (2)               -0.04566866 [mEh]      -0.02865752 [kcal/mol]      -0.11990305 [kJ/mol]

    Dispersion                     -1.46786225 [mEh]      -0.92109747 [kcal/mol]      -3.85387181 [kJ/mol]
      Disp20                       -1.54126616 [mEh]      -0.96715912 [kcal/mol]      -4.04659374 [kJ/mol]
      Disp21                        0.20783056 [mEh]       0.13041564 [kcal/mol]       0.54565905 [kJ/mol]
      Disp22 (SDQ)                  0.07399367 [mEh]       0.04643173 [kcal/mol]       0.19427035 [kJ/mol]
      Disp22 (T)                   -0.24464340 [mEh]      -0.15351605 [kcal/mol]      -0.64231116 [kJ/mol]
      Est. Disp22 (T)              -0.26274271 [mEh]      -0.16487354 [kcal/mol]      -0.68983089 [kJ/mol]
      Exch-Disp20                   0.05432240 [mEh]       0.03408782 [kcal/mol]       0.14262343 [kJ/mol]

  Total HF                         -0.82223673 [mEh]      -0.51596134 [kcal/mol]      -2.15878225 [kJ/mol]
  Total SAPT0                      -2.30918050 [mEh]      -1.44903264 [kcal/mol]      -6.06275256 [kJ/mol]
  Total SAPT2                      -2.26227960 [mEh]      -1.41960188 [kcal/mol]      -5.93961426 [kJ/mol]
  Total SAPT2+                     -2.24319808 [mEh]      -1.40762805 [kcal/mol]      -5.88951576 [kJ/mol]

  Special recipe for scaled SAPT0 (see Manual):
    Electrostatics sSAPT0          -1.02163140 [mEh]      -0.64108338 [kcal/mol]      -2.68229286 [kJ/mol]
    Exchange sSAPT0                 0.33528623 [mEh]       0.21039529 [kcal/mol]       0.88029388 [kJ/mol]
    Induction sSAPT0               -0.13583508 [mEh]      -0.08523780 [kcal/mol]      -0.35663494 [kJ/mol]
    Dispersion sSAPT0              -1.48690216 [mEh]      -0.93304519 [kcal/mol]      -3.90386108 [kJ/mol]
  Total sSAPT0                     -2.30908240 [mEh]      -1.44897108 [kcal/mol]      -6.06249500 [kJ/mol]
  --------------------------------------------------------------------------------------------------------

*** Psi4 exiting successfully. Buy a developer a beer!
