                               Psi4 1.4a2.dev224

  ==> Input File <==

--------------------------------------------------------------------------
#Generated by lconvert.py for sapt job

memory 50 GB

molecule  {
0 1
  C      -3.546780   -0.481930    0.591520
  O      -1.627660    0.158050   -1.132410
  S      -2.263920    0.691080    0.115120
  C      -1.152930    0.298440    1.478990
  H      -3.959580   -0.193980    1.555570
  H      -4.312990   -0.438870   -0.178060
  H      -3.103700   -1.475720    0.616600
  H      -1.627580    0.566200    2.420110
  H      -0.916340   -0.762660    1.427500
  H      -0.250770    0.885380    1.327910
--
0 1
  O      -4.992180    4.607090    4.030820
  H      -4.818640    5.033920    3.187520
  H      -5.410310    5.292760    4.555860
units angstrom
no_reorient
symmetry c1
}

set {
scf_type DF
basis aug-cc-pvtz
freeze_core True
guess SAD
}
energy('sapt2+')
--------------------------------------------------------------------------

  //              Dimer HF             //
    Molecular point group: c1
  Charge       = 0
  Multiplicity = 1
  Basis Set: AUG-CC-PVTZ
    Blend: AUG-CC-PVTZ
  Basis Set: (AUG-CC-PVTZ AUX)
    Blend: AUG-CC-PVTZ-JKFIT
  @DF-RHF Final Energy:  -627.71473206350458
    Total Energy =                       -627.7147320635045844
  //            Monomer A HF           //
    Molecular point group: c1
  Multiplicity = 1
  Basis Set: AUG-CC-PVTZ
    Blend: AUG-CC-PVTZ
  Basis Set: (AUG-CC-PVTZ AUX)
    Blend: AUG-CC-PVTZ-JKFIT
  @DF-RHF Final Energy:  -551.65349366589930
    Total Energy =                       -551.6534936658993047
  //            Monomer B HF           //
    Molecular point group: c1

    Geometry (in Angstrom), charge = 0, multiplicity = 1:

       Center              X                  Y                   Z               Mass
    ------------   -----------------  -----------------  -----------------  -----------------
      Gh(C)          -0.846913348907    -1.576318551459    -0.344868832760    12.000000000000
      Gh(O)           1.072206651093    -0.936338551459    -2.068798832760    15.994914619570
      Gh(S)           0.435946651093    -0.403308551459    -0.821268832760    31.972071174400
      Gh(C)           1.546936651093    -0.795948551459     0.542601167240    12.000000000000
      Gh(H)          -1.259713348907    -1.288368551459     0.619181167240     1.007825032230
      Gh(H)          -1.613123348907    -1.533258551459    -1.114448832760     1.007825032230
      Gh(H)          -0.403833348907    -2.570108551459    -0.319788832760     1.007825032230
      Gh(H)           1.072286651093    -0.528188551459     1.483721167240     1.007825032230
      Gh(H)           1.783526651093    -1.857048551459     0.491111167240     1.007825032230
      Gh(H)           2.449096651093    -0.209008551459     0.391521167240     1.007825032230
         O           -2.292313348907     3.512701448541     3.094431167240    15.994914619570
         H           -2.118773348907     3.939531448541     2.251131167240     1.007825032230
         H           -2.710443348907     4.198371448541     3.619471167240     1.007825032230

  Charge       = 0
  Multiplicity = 1
  Basis Set: AUG-CC-PVTZ
    Blend: AUG-CC-PVTZ
  Basis Set: (AUG-CC-PVTZ AUX)
    Blend: AUG-CC-PVTZ-JKFIT

    Orbital Energies [Eh]
    ---------------------

    Doubly Occupied:

       1A    -20.567971     2A     -1.352454     3A     -0.715163
       4A     -0.585432     5A     -0.510275

  @DF-RHF Final Energy:   -76.06035393553206

   => Energetics <=

    Nuclear Repulsion Energy =              9.1672143898566532
    One-Electron Energy =                -122.9925443313637032
    Two-Electron Energy =                  37.7649760059749866
    Total Energy =                        -76.0603539355320635

  Dipole Moment: [D]
     X:    -0.4126      Y:     1.8759      Z:    -0.5362     Total:     1.9942

    SAPT Results
  --------------------------------------------------------------------------------------------------------
    Electrostatics                 -0.72611172 [mEh]      -0.45564198 [kcal/mol]      -1.90640605 [kJ/mol]
      Elst10,r                     -0.86880234 [mEh]      -0.54518170 [kcal/mol]      -2.28104023 [kJ/mol]
      Elst12,r                      0.14269062 [mEh]       0.08953972 [kcal/mol]       0.37463418 [kJ/mol]

    Exchange                        0.00056062 [mEh]       0.00035179 [kcal/mol]       0.00147191 [kJ/mol]
      Exch10                        0.00036221 [mEh]       0.00022729 [kcal/mol]       0.00095099 [kJ/mol]
      Exch10(S^2)                   0.00036221 [mEh]       0.00022729 [kcal/mol]       0.00095099 [kJ/mol]
      Exch11(S^2)                  -0.00001003 [mEh]      -0.00000629 [kcal/mol]      -0.00002633 [kJ/mol]
      Exch12(S^2)                   0.00020844 [mEh]       0.00013079 [kcal/mol]       0.00054725 [kJ/mol]

    Induction                      -0.01458505 [mEh]      -0.00915226 [kcal/mol]      -0.03829304 [kJ/mol]
      Ind20,r                      -0.01590018 [mEh]      -0.00997751 [kcal/mol]      -0.04174591 [kJ/mol]
      Ind22                         0.00144691 [mEh]       0.00090795 [kcal/mol]       0.00379887 [kJ/mol]
      Exch-Ind20,r                  0.00011006 [mEh]       0.00006906 [kcal/mol]       0.00028896 [kJ/mol]
      Exch-Ind22                   -0.00001002 [mEh]      -0.00000628 [kcal/mol]      -0.00002630 [kJ/mol]
      delta HF,r (2)               -0.00023183 [mEh]      -0.00014548 [kcal/mol]      -0.00060867 [kJ/mol]

    Dispersion                     -0.08417475 [mEh]      -0.05282046 [kcal/mol]      -0.22100079 [kJ/mol]
      Disp20                       -0.07981429 [mEh]      -0.05008422 [kcal/mol]      -0.20955239 [kJ/mol]
      Disp21                        0.01230941 [mEh]       0.00772427 [kcal/mol]       0.03231835 [kJ/mol]
      Disp22 (SDQ)                 -0.00113597 [mEh]      -0.00071283 [kcal/mol]      -0.00298249 [kJ/mol]
      Disp22 (T)                   -0.01517013 [mEh]      -0.00951940 [kcal/mol]      -0.03982917 [kJ/mol]
      Est. Disp22 (T)              -0.01560176 [mEh]      -0.00979025 [kcal/mol]      -0.04096241 [kJ/mol]
      Exch-Disp20                   0.00006786 [mEh]       0.00004258 [kcal/mol]       0.00017816 [kJ/mol]

  Total HF                         -0.88446207 [mEh]      -0.55500833 [kcal/mol]      -2.32215485 [kJ/mol]
  Total SAPT0                      -0.96420851 [mEh]      -0.60504997 [kcal/mol]      -2.53152909 [kJ/mol]
  Total SAPT2                      -0.81988258 [mEh]      -0.51448409 [kcal/mol]      -2.15260142 [kJ/mol]
  Total SAPT2+                     -0.82431090 [mEh]      -0.51726290 [kcal/mol]      -2.16422797 [kJ/mol]

  Special recipe for scaled SAPT0 (see Manual):
    Electrostatics sSAPT0          -0.86880234 [mEh]      -0.54518170 [kcal/mol]      -2.28104023 [kJ/mol]
    Exchange sSAPT0                 0.00036221 [mEh]       0.00022729 [kcal/mol]       0.00095099 [kJ/mol]
    Induction sSAPT0               -0.01602195 [mEh]      -0.01005392 [kcal/mol]      -0.04206561 [kJ/mol]
    Dispersion sSAPT0              -0.07974643 [mEh]      -0.05004164 [kcal/mol]      -0.20937423 [kJ/mol]
  Total sSAPT0                     -0.96420851 [mEh]      -0.60504997 [kcal/mol]      -2.53152909 [kJ/mol]
  --------------------------------------------------------------------------------------------------------

*** Psi4 exiting successfully. Buy a developer a beer!
