                               Psi4 1.4a2.dev224

  ==> Input File <==

--------------------------------------------------------------------------
#Generated by lconvert.py for sapt job

memory 50 GB

molecule  {
0 1
  C      -3.546780   -0.481930    0.591520
  O      -1.627660    0.158050   -1.132410
  S      -2.263920    0.691080    0.115120
  C      -1.152930    0.298440    1.478990
  H      -3.959580   -0.193980    1.555570
  H      -4.312990   -0.438870   -0.178060
  H      -3.103700   -1.475720    0.616600
  H      -1.627580    0.566200    2.420110
  H      -0.916340   -0.762660    1.427500
  H      -0.250770    0.885380    1.327910
--
0 1
  O      -4.559100    3.828760    3.547040
  H      -4.385560    4.255580    2.703740
  H      -4.977230    4.514420    4.072080
units angstrom
no_reorient
symmetry c1
}

set {
scf_type DF
basis aug-cc-pvtz
freeze_core True
guess SAD
}
energy('sapt2+')
--------------------------------------------------------------------------

  //              Dimer HF             //
    Molecular point group: c1
  Charge       = 0
  Multiplicity = 1
  Basis Set: AUG-CC-PVTZ
    Blend: AUG-CC-PVTZ
  Basis Set: (AUG-CC-PVTZ AUX)
    Blend: AUG-CC-PVTZ-JKFIT
  @DF-RHF Final Energy:  -627.71534888904250
    Total Energy =                       -627.7153488890426161
  //            Monomer A HF           //
    Molecular point group: c1
  Multiplicity = 1
  Basis Set: AUG-CC-PVTZ
    Blend: AUG-CC-PVTZ
  Basis Set: (AUG-CC-PVTZ AUX)
    Blend: AUG-CC-PVTZ-JKFIT
  @DF-RHF Final Energy:  -551.65349843535466
    Total Energy =                       -551.6534984353546633
  //            Monomer B HF           //
    Molecular point group: c1

    Geometry (in Angstrom), charge = 0, multiplicity = 1:

       Center              X                  Y                   Z               Mass
    ------------   -----------------  -----------------  -----------------  -----------------
      Gh(C)          -0.928142777843    -1.430333069952    -0.254130001296    12.000000000000
      Gh(O)           0.990977222157    -0.790353069952    -1.978060001296    15.994914619570
      Gh(S)           0.354717222157    -0.257323069952    -0.730530001296    31.972071174400
      Gh(C)           1.465707222157    -0.649963069952     0.633339998704    12.000000000000
      Gh(H)          -1.340942777843    -1.142383069952     0.709919998704     1.007825032230
      Gh(H)          -1.694352777843    -1.387273069952    -1.023710001296     1.007825032230
      Gh(H)          -0.485062777843    -2.424123069952    -0.229050001296     1.007825032230
      Gh(H)           0.991057222157    -0.382203069952     1.574459998704     1.007825032230
      Gh(H)           1.702297222157    -1.711063069952     0.581849998704     1.007825032230
      Gh(H)           2.367867222157    -0.063023069952     0.482259998704     1.007825032230
         O           -1.940462777843     2.880356930048     2.701389998704    15.994914619570
         H           -1.766922777843     3.307176930048     1.858089998704     1.007825032230
         H           -2.358592777843     3.566016930048     3.226429998704     1.007825032230

  Charge       = 0
  Multiplicity = 1
  Basis Set: AUG-CC-PVTZ
    Blend: AUG-CC-PVTZ
  Basis Set: (AUG-CC-PVTZ AUX)
    Blend: AUG-CC-PVTZ-JKFIT

    Orbital Energies [Eh]
    ---------------------

    Doubly Occupied:

       1A    -20.567973     2A     -1.352459     3A     -0.715171
       4A     -0.585431     5A     -0.510278

  @DF-RHF Final Energy:   -76.06035775254693

   => Energetics <=

    Nuclear Repulsion Energy =              9.1672676121212557
    One-Electron Energy =                -122.9926243305422986
    Two-Electron Energy =                  37.7649989658741063
    Total Energy =                        -76.0603577525469348

  Dipole Moment: [D]
     X:    -0.4128      Y:     1.8763      Z:    -0.5361     Total:     1.9946

    SAPT Results
  --------------------------------------------------------------------------------------------------------
    Electrostatics                 -1.22892793 [mEh]      -0.77116392 [kcal/mol]      -3.22654985 [kJ/mol]
      Elst10,r                     -1.45419618 [mEh]      -0.91252188 [kcal/mol]      -3.81799155 [kJ/mol]
      Elst12,r                      0.22526825 [mEh]       0.14135796 [kcal/mol]       0.59144170 [kJ/mol]

    Exchange                        0.01296700 [mEh]       0.00813692 [kcal/mol]       0.03404486 [kJ/mol]
      Exch10                        0.00928951 [mEh]       0.00582926 [kcal/mol]       0.02438961 [kJ/mol]
      Exch10(S^2)                   0.00928946 [mEh]       0.00582922 [kcal/mol]       0.02438947 [kJ/mol]
      Exch11(S^2)                  -0.00013939 [mEh]      -0.00008747 [kcal/mol]      -0.00036596 [kJ/mol]
      Exch12(S^2)                   0.00381687 [mEh]       0.00239512 [kcal/mol]       0.01002120 [kJ/mol]

    Induction                      -0.04544428 [mEh]      -0.02851672 [kcal/mol]      -0.11931394 [kJ/mol]
      Ind20,r                      -0.04868704 [mEh]      -0.03055158 [kcal/mol]      -0.12782781 [kJ/mol]
      Ind22                         0.00249016 [mEh]       0.00156260 [kcal/mol]       0.00653790 [kJ/mol]
      Exch-Ind20,r                  0.00273653 [mEh]       0.00171720 [kcal/mol]       0.00718475 [kJ/mol]
      Exch-Ind22                   -0.00013996 [mEh]      -0.00008783 [kcal/mol]      -0.00036747 [kJ/mol]
      delta HF,r (2)               -0.00184396 [mEh]      -0.00115710 [kcal/mol]      -0.00484131 [kJ/mol]

    Dispersion                     -0.25593155 [mEh]      -0.16059947 [kcal/mol]      -0.67194818 [kJ/mol]
      Disp20                       -0.23983014 [mEh]      -0.15049569 [kcal/mol]      -0.62967395 [kJ/mol]
      Disp21                        0.03220079 [mEh]       0.02020630 [kcal/mol]       0.08454317 [kJ/mol]
      Disp22 (SDQ)                 -0.00358832 [mEh]      -0.00225170 [kcal/mol]      -0.00942113 [kJ/mol]
      Disp22 (T)                   -0.04409027 [mEh]      -0.02766706 [kcal/mol]      -0.11575899 [kJ/mol]
      Est. Disp22 (T)              -0.04624372 [mEh]      -0.02901838 [kcal/mol]      -0.12141288 [kJ/mol]
      Exch-Disp20                   0.00152984 [mEh]       0.00095999 [kcal/mol]       0.00401660 [kJ/mol]

  Total HF                         -1.49270114 [mEh]      -0.93668411 [kcal/mol]      -3.91908631 [kJ/mol]
  Total SAPT0                      -1.73100144 [mEh]      -1.08621980 [kcal/mol]      -4.54474365 [kJ/mol]
  Total SAPT2                      -1.49970551 [mEh]      -0.94107942 [kcal/mol]      -3.93747628 [kJ/mol]
  Total SAPT2+                     -1.51733676 [mEh]      -0.95214319 [kcal/mol]      -3.98376712 [kJ/mol]

  Special recipe for scaled SAPT0 (see Manual):
    Electrostatics sSAPT0          -1.45419618 [mEh]      -0.91252188 [kcal/mol]      -3.81799155 [kJ/mol]
    Exchange sSAPT0                 0.00928951 [mEh]       0.00582926 [kcal/mol]       0.02438961 [kJ/mol]
    Induction sSAPT0               -0.04779447 [mEh]      -0.02999148 [kcal/mol]      -0.12548437 [kJ/mol]
    Dispersion sSAPT0              -0.23830030 [mEh]      -0.14953569 [kcal/mol]      -0.62565735 [kJ/mol]
  Total sSAPT0                     -1.73100144 [mEh]      -1.08621980 [kcal/mol]      -4.54474365 [kJ/mol]
  --------------------------------------------------------------------------------------------------------

*** Psi4 exiting successfully. Buy a developer a beer!
