                               Psi4 1.4a2.dev224

  ==> Input File <==

--------------------------------------------------------------------------
#Generated by lconvert.py for sapt job

memory 50 GB

molecule  {
0 1
  C      -3.546780   -0.481930    0.591520
  O      -1.627660    0.158050   -1.132410
  S      -2.263920    0.691080    0.115120
  C      -1.152930    0.298440    1.478990
  H      -3.959580   -0.193980    1.555570
  H      -4.312990   -0.438870   -0.178060
  H      -3.103700   -1.475720    0.616600
  H      -1.627580    0.566200    2.420110
  H      -0.916340   -0.762660    1.427500
  H      -0.250770    0.885380    1.327910
--
0 1
  O      -4.126030    3.050420    3.063250
  H      -3.952480    3.477240    2.219960
  H      -4.544150    3.736080    3.588300
units angstrom
no_reorient
symmetry c1
}

set {
scf_type DF
basis aug-cc-pvtz
freeze_core True
guess SAD
}
energy('sapt2+')
--------------------------------------------------------------------------

  //              Dimer HF             //
    Molecular point group: c1
  Charge       = 0
  Multiplicity = 1
  Basis Set: AUG-CC-PVTZ
    Blend: AUG-CC-PVTZ
  Basis Set: (AUG-CC-PVTZ AUX)
    Blend: AUG-CC-PVTZ-JKFIT
  @DF-RHF Final Energy:  -627.71667244594596
    Total Energy =                       -627.7166724459459601
  //            Monomer A HF           //
    Molecular point group: c1
  Multiplicity = 1
  Basis Set: AUG-CC-PVTZ
    Blend: AUG-CC-PVTZ
  Basis Set: (AUG-CC-PVTZ AUX)
    Blend: AUG-CC-PVTZ-JKFIT
  @DF-RHF Final Energy:  -551.65352201057362
    Total Energy =                       -551.6535220105736244
  //            Monomer B HF           //
    Molecular point group: c1

    Geometry (in Angstrom), charge = 0, multiplicity = 1:

       Center              X                  Y                   Z               Mass
    ------------   -----------------  -----------------  -----------------  -----------------
      Gh(C)          -1.009370541066    -1.284345922732    -0.163389504120    12.000000000000
      Gh(O)           0.909749458934    -0.644365922732    -1.887319504120    15.994914619570
      Gh(S)           0.273489458934    -0.111335922732    -0.639789504120    31.972071174400
      Gh(C)           1.384479458934    -0.503975922732     0.724080495880    12.000000000000
      Gh(H)          -1.422170541066    -0.996395922732     0.800660495880     1.007825032230
      Gh(H)          -1.775580541066    -1.241285922732    -0.932969504120     1.007825032230
      Gh(H)          -0.566290541066    -2.278135922732    -0.138309504120     1.007825032230
      Gh(H)           0.909829458934    -0.236215922732     1.665200495880     1.007825032230
      Gh(H)           1.621069458934    -1.565075922732     0.672590495880     1.007825032230
      Gh(H)           2.286639458934     0.082964077268     0.573000495880     1.007825032230
         O           -1.588620541066     2.248004077268     2.308340495880    15.994914619570
         H           -1.415070541066     2.674824077268     1.465050495880     1.007825032230
         H           -2.006740541066     2.933664077268     2.833390495880     1.007825032230

  Charge       = 0
  Multiplicity = 1
  Basis Set: AUG-CC-PVTZ
    Blend: AUG-CC-PVTZ
  Basis Set: (AUG-CC-PVTZ AUX)
    Blend: AUG-CC-PVTZ-JKFIT

    Orbital Energies [Eh]
    ---------------------

    Doubly Occupied:

       1A    -20.567963     2A     -1.352453     3A     -0.715168
       4A     -0.585428     5A     -0.510272

  @DF-RHF Final Energy:   -76.06037122142378

   => Energetics <=

    Nuclear Repulsion Energy =              9.1672944394551070
    One-Electron Energy =                -122.9927616179043497
    Two-Electron Energy =                  37.7650959570254727
    Total Energy =                        -76.0603712214237646

  Dipole Moment: [D]
     X:    -0.4128      Y:     1.8763      Z:    -0.5360     Total:     1.9946

    SAPT Results
  --------------------------------------------------------------------------------------------------------
    Electrostatics                 -2.46364099 [mEh]      -1.54595806 [kcal/mol]      -6.46828853 [kJ/mol]
      Elst10,r                     -2.82535492 [mEh]      -1.77293698 [kcal/mol]      -7.41796832 [kJ/mol]
      Elst12,r                      0.36171393 [mEh]       0.22697892 [kcal/mol]       0.94967979 [kJ/mol]

    Exchange                        0.31152754 [mEh]       0.19548648 [kcal/mol]       0.81791545 [kJ/mol]
      Exch10                        0.24706087 [mEh]       0.15503304 [kcal/mol]       0.64865822 [kJ/mol]
      Exch10(S^2)                   0.24703965 [mEh]       0.15501972 [kcal/mol]       0.64860251 [kJ/mol]
      Exch11(S^2)                  -0.00011793 [mEh]      -0.00007400 [kcal/mol]      -0.00030962 [kJ/mol]
      Exch12(S^2)                   0.06458460 [mEh]       0.04052745 [kcal/mol]       0.16956685 [kJ/mol]

    Induction                      -0.21143683 [mEh]      -0.13267862 [kcal/mol]      -0.55512733 [kJ/mol]
      Ind20,r                      -0.24933493 [mEh]      -0.15646003 [kcal/mol]      -0.65462878 [kJ/mol]
      Ind22                        -0.01482728 [mEh]      -0.00930426 [kcal/mol]      -0.03892901 [kJ/mol]
      Exch-Ind20,r                  0.07248247 [mEh]       0.04548344 [kcal/mol]       0.19030271 [kJ/mol]
      Exch-Ind22                    0.00431034 [mEh]       0.00270478 [kcal/mol]       0.01131679 [kJ/mol]
      delta HF,r (2)               -0.02406743 [mEh]      -0.01510254 [kcal/mol]      -0.06318904 [kJ/mol]

    Dispersion                     -1.00333322 [mEh]      -0.62960110 [kcal/mol]      -2.63425100 [kJ/mol]
      Disp20                       -0.94267081 [mEh]      -0.59153486 [kcal/mol]      -2.47498187 [kJ/mol]
      Disp21                        0.09810635 [mEh]       0.06156267 [kcal/mol]       0.25757820 [kJ/mol]
      Disp22 (SDQ)                 -0.01456676 [mEh]      -0.00914078 [kcal/mol]      -0.03824503 [kJ/mol]
      Disp22 (T)                   -0.16290911 [mEh]      -0.10222701 [kcal/mol]      -0.42771782 [kJ/mol]
      Est. Disp22 (T)              -0.17719074 [mEh]      -0.11118887 [kcal/mol]      -0.46521423 [kJ/mol]
      Exch-Disp20                   0.03298874 [mEh]       0.02070075 [kcal/mol]       0.08661194 [kJ/mol]

  Total HF                         -2.77921395 [mEh]      -1.74398308 [kcal/mol]      -7.29682522 [kJ/mol]
  Total SAPT0                      -3.68889601 [mEh]      -2.31481720 [kcal/mol]      -9.68519515 [kJ/mol]
  Total SAPT2                      -3.27323235 [mEh]      -2.05398431 [kcal/mol]      -8.59387035 [kJ/mol]
  Total SAPT2+                     -3.36688350 [mEh]      -2.11275129 [kcal/mol]      -8.83975141 [kJ/mol]

  Special recipe for scaled SAPT0 (see Manual):
    Electrostatics sSAPT0          -2.82535492 [mEh]      -1.77293698 [kcal/mol]      -7.41796832 [kJ/mol]
    Exchange sSAPT0                 0.24706087 [mEh]       0.15503304 [kcal/mol]       0.64865822 [kJ/mol]
    Induction sSAPT0               -0.20090122 [mEh]      -0.12606742 [kcal/mol]      -0.52746607 [kJ/mol]
    Dispersion sSAPT0              -0.90967356 [mEh]      -0.57082878 [kcal/mol]      -2.38834761 [kJ/mol]
  Total sSAPT0                     -3.68886883 [mEh]      -2.31480014 [kcal/mol]      -9.68512379 [kJ/mol]
  --------------------------------------------------------------------------------------------------------

*** Psi4 exiting successfully. Buy a developer a beer!
