                               Psi4 1.4a2.dev224

  ==> Input File <==

--------------------------------------------------------------------------
#Generated by lconvert.py for sapt job

memory 50 GB

molecule  {
0 1
  C      -3.228950   -0.562410    0.903880
  O      -1.614570    1.539640    0.825440
  S      -2.022170    0.445430    1.779810
  C      -0.684770   -0.757880    1.728830
  H      -3.489850   -1.426690    1.511490
  H      -4.097340    0.069480    0.736340
  H      -2.798720   -0.860590   -0.050250
  H      -0.966690   -1.647620    2.288310
  H      -0.479520   -0.990640    0.685940
  H       0.182770   -0.287970    2.183830
--
0 1
  O      -5.098430    2.780970   -0.674940
  H      -4.167230    2.708690   -0.412630
  H      -5.240270    3.722760   -0.778910
units angstrom
no_reorient
symmetry c1
}

set {
scf_type DF
basis aug-cc-pvtz
freeze_core True
guess SAD
}
energy('sapt2+')
--------------------------------------------------------------------------

  //              Dimer HF             //
    Molecular point group: c1
  Charge       = 0
  Multiplicity = 1
  Basis Set: AUG-CC-PVTZ
    Blend: AUG-CC-PVTZ
  Basis Set: (AUG-CC-PVTZ AUX)
    Blend: AUG-CC-PVTZ-JKFIT
  @DF-RHF Final Energy:  -627.71830492524464
    Total Energy =                       -627.7183049252446381
  //            Monomer A HF           //
    Molecular point group: c1
  Multiplicity = 1
  Basis Set: AUG-CC-PVTZ
    Blend: AUG-CC-PVTZ
  Basis Set: (AUG-CC-PVTZ AUX)
    Blend: AUG-CC-PVTZ-JKFIT
  @DF-RHF Final Energy:  -551.65322381094973
    Total Energy =                       -551.6532238109498394
  //            Monomer B HF           //
    Molecular point group: c1

    Geometry (in Angstrom), charge = 0, multiplicity = 1:

       Center              X                  Y                   Z               Mass
    ------------   -----------------  -----------------  -----------------  -----------------
      Gh(C)          -0.727368800844    -1.278926319685    -0.107490227450    12.000000000000
      Gh(O)           0.887011199156     0.823123680315    -0.185930227450    15.994914619570
      Gh(S)           0.479411199156    -0.271086319685     0.768439772550    31.972071174400
      Gh(C)           1.816811199156    -1.474396319685     0.717459772550    12.000000000000
      Gh(H)          -0.988268800844    -2.143206319685     0.500119772550     1.007825032230
      Gh(H)          -1.595758800844    -0.647036319685    -0.275030227450     1.007825032230
      Gh(H)          -0.297138800844    -1.577106319685    -1.061620227450     1.007825032230
      Gh(H)           1.534891199156    -2.364136319685     1.276939772550     1.007825032230
      Gh(H)           2.022061199156    -1.707156319685    -0.325430227450     1.007825032230
      Gh(H)           2.684351199156    -1.004486319685     1.172459772550     1.007825032230
         O           -2.596848800844     2.064453680315    -1.686310227450    15.994914619570
         H           -1.665648800844     1.992173680315    -1.424000227450     1.007825032230
         H           -2.738688800844     3.006243680315    -1.790280227450     1.007825032230

  Charge       = 0
  Multiplicity = 1
  Basis Set: AUG-CC-PVTZ
    Blend: AUG-CC-PVTZ
  Basis Set: (AUG-CC-PVTZ AUX)
    Blend: AUG-CC-PVTZ-JKFIT

    Orbital Energies [Eh]
    ---------------------

    Doubly Occupied:

       1A    -20.568559     2A     -1.350362     3A     -0.713430
       4A     -0.584293     5A     -0.509899

  @DF-RHF Final Energy:   -76.05999868269930

   => Energetics <=

    Nuclear Repulsion Energy =              9.1303103833403352
    One-Electron Energy =                -122.9275279956663383
    Two-Electron Energy =                  37.7372189296267067
    Total Energy =                        -76.0599986826993018

  Dipole Moment: [D]
     X:     1.3251      Y:     1.4672      Z:     0.2654     Total:     1.9948

    SAPT Results
  --------------------------------------------------------------------------------------------------------
    Electrostatics                 -4.37982768 [mEh]      -2.74838336 [kcal/mol]     -11.49923599 [kJ/mol]
      Elst10,r                     -5.07753726 [mEh]      -3.18620273 [kcal/mol]     -13.33107223 [kJ/mol]
      Elst12,r                      0.69770958 [mEh]       0.43781937 [kcal/mol]       1.83183624 [kJ/mol]

    Exchange                        0.53369888 [mEh]       0.33490111 [kcal/mol]       1.40122623 [kJ/mol]
      Exch10                        0.41289495 [mEh]       0.25909549 [kcal/mol]       1.08405555 [kJ/mol]
      Exch10(S^2)                   0.41279548 [mEh]       0.25903307 [kcal/mol]       1.08379438 [kJ/mol]
      Exch11(S^2)                   0.00223057 [mEh]       0.00139971 [kcal/mol]       0.00585637 [kJ/mol]
      Exch12(S^2)                   0.11857336 [mEh]       0.07440591 [kcal/mol]       0.31131431 [kJ/mol]

    Induction                      -0.44195720 [mEh]      -0.27733233 [kcal/mol]      -1.16035848 [kJ/mol]
      Ind20,r                      -0.44115462 [mEh]      -0.27682870 [kcal/mol]      -1.15825129 [kJ/mol]
      Ind22                        -0.02947940 [mEh]      -0.01849861 [kcal/mol]      -0.07739816 [kJ/mol]
      Exch-Ind20,r                  0.07948564 [mEh]       0.04987799 [kcal/mol]       0.20868951 [kJ/mol]
      Exch-Ind22                    0.00531149 [mEh]       0.00333301 [kcal/mol]       0.01394532 [kJ/mol]
      delta HF,r (2)               -0.05612031 [mEh]      -0.03521603 [kcal/mol]      -0.14734386 [kJ/mol]

    Dispersion                     -1.22477378 [mEh]      -0.76855715 [kcal/mol]      -3.21564313 [kJ/mol]
      Disp20                       -1.11350816 [mEh]      -0.69873692 [kcal/mol]      -2.92351528 [kJ/mol]
      Disp21                        0.08074999 [mEh]       0.05067138 [kcal/mol]       0.21200906 [kJ/mol]
      Disp22 (SDQ)                 -0.01569794 [mEh]      -0.00985061 [kcal/mol]      -0.04121495 [kJ/mol]
      Disp22 (T)                   -0.20354075 [mEh]      -0.12772375 [kcal/mol]      -0.53439616 [kJ/mol]
      Est. Disp22 (T)              -0.22256093 [mEh]      -0.13965909 [kcal/mol]      -0.58433363 [kJ/mol]
      Exch-Disp20                   0.04624326 [mEh]       0.02901809 [kcal/mol]       0.12141167 [kJ/mol]

  Total HF                         -5.08243160 [mEh]      -3.18927398 [kcal/mol]     -13.34392232 [kJ/mol]
  Total SAPT0                      -6.14969649 [mEh]      -3.85899281 [kcal/mol]     -16.14602592 [kJ/mol]
  Total SAPT2                      -5.35535090 [mEh]      -3.36053342 [kcal/mol]     -14.06047185 [kJ/mol]
  Total SAPT2+                     -5.51285978 [mEh]      -3.45937174 [kcal/mol]     -14.47401137 [kJ/mol]

  Special recipe for scaled SAPT0 (see Manual):
    Electrostatics sSAPT0          -5.07753726 [mEh]      -3.18620273 [kcal/mol]     -13.33107223 [kJ/mol]
    Exchange sSAPT0                 0.41289495 [mEh]       0.25909549 [kcal/mol]       1.08405555 [kJ/mol]
    Induction sSAPT0               -0.41773182 [mEh]      -0.26213067 [kcal/mol]      -1.09675473 [kJ/mol]
    Dispersion sSAPT0              -1.06723146 [mEh]      -0.66969785 [kcal/mol]      -2.80201581 [kJ/mol]
  Total sSAPT0                     -6.14960558 [mEh]      -3.85893576 [kcal/mol]     -16.14578722 [kJ/mol]
  --------------------------------------------------------------------------------------------------------

*** Psi4 exiting successfully. Buy a developer a beer!
