                               Psi4 1.4a2.dev224

  ==> Input File <==

--------------------------------------------------------------------------
#Generated by lconvert.py for sapt job

memory 50 GB

molecule  {
0 1
  C      -3.228950   -0.562410    0.903880
  O      -1.614570    1.539640    0.825440
  S      -2.022170    0.445430    1.779810
  C      -0.684770   -0.757880    1.728830
  H      -3.489850   -1.426690    1.511490
  H      -4.097340    0.069480    0.736340
  H      -2.798720   -0.860590   -0.050250
  H      -0.966690   -1.647620    2.288310
  H      -0.479520   -0.990640    0.685940
  H       0.182770   -0.287970    2.183830
--
0 1
  O      -4.619800    2.561780   -0.442800
  H      -3.688600    2.489490   -0.180490
  H      -4.761650    3.503560   -0.546770
units angstrom
no_reorient
symmetry c1
}

set {
scf_type DF
basis aug-cc-pvtz
freeze_core True
guess SAD
}
energy('sapt2+')
--------------------------------------------------------------------------

  //              Dimer HF             //
    Molecular point group: c1
  Charge       = 0
  Multiplicity = 1
  Basis Set: AUG-CC-PVTZ
    Blend: AUG-CC-PVTZ
  Basis Set: (AUG-CC-PVTZ AUX)
    Blend: AUG-CC-PVTZ-JKFIT
  @DF-RHF Final Energy:  -627.72142368577249
    Total Energy =                       -627.7214236857724927
  //            Monomer A HF           //
    Molecular point group: c1
  Multiplicity = 1
  Basis Set: AUG-CC-PVTZ
    Blend: AUG-CC-PVTZ
  Basis Set: (AUG-CC-PVTZ AUX)
    Blend: AUG-CC-PVTZ-JKFIT
  @DF-RHF Final Energy:  -551.65325152624166
    Total Energy =                       -551.6532515262417746
  //            Monomer B HF           //
    Molecular point group: c1

    Geometry (in Angstrom), charge = 0, multiplicity = 1:

       Center              X                  Y                   Z               Mass
    ------------   -----------------  -----------------  -----------------  -----------------
      Gh(C)          -0.817141582126    -1.237814355530    -0.151030911927    12.000000000000
      Gh(O)           0.797238417874     0.864235644470    -0.229470911927    15.994914619570
      Gh(S)           0.389638417874    -0.229974355530     0.724899088073    31.972071174400
      Gh(C)           1.727038417874    -1.433284355530     0.673919088073    12.000000000000
      Gh(H)          -1.078041582126    -2.102094355530     0.456579088073     1.007825032230
      Gh(H)          -1.685531582126    -0.605924355530    -0.318570911927     1.007825032230
      Gh(H)          -0.386911582126    -1.535994355530    -1.105160911927     1.007825032230
      Gh(H)           1.445118417874    -2.323024355530     1.233399088073     1.007825032230
      Gh(H)           1.932288417874    -1.666044355530    -0.368970911927     1.007825032230
      Gh(H)           2.594578417874    -0.963374355530     1.128919088073     1.007825032230
         O           -2.207991582126     1.886375644470    -1.497710911927    15.994914619570
         H           -1.276791582126     1.814085644470    -1.235400911927     1.007825032230
         H           -2.349841582126     2.828155644470    -1.601680911927     1.007825032230

  Charge       = 0
  Multiplicity = 1
  Basis Set: AUG-CC-PVTZ
    Blend: AUG-CC-PVTZ
  Basis Set: (AUG-CC-PVTZ AUX)
    Blend: AUG-CC-PVTZ-JKFIT

    Orbital Energies [Eh]
    ---------------------

    Doubly Occupied:

       1A    -20.568525     2A     -1.350333     3A     -0.713410
       4A     -0.584272     5A     -0.509881

  @DF-RHF Final Energy:   -76.06002574951404

   => Energetics <=

    Nuclear Repulsion Energy =              9.1303439277118930
    One-Electron Energy =                -122.9278932481771989
    Two-Electron Energy =                  37.7375235709512822
    Total Energy =                        -76.0600257495140255

  Dipole Moment: [D]
     X:     1.3250      Y:     1.4666      Z:     0.2650     Total:     1.9942

    SAPT Results
  --------------------------------------------------------------------------------------------------------
    Electrostatics                 -8.30262612 [mEh]      -5.20997655 [kcal/mol]     -21.79854188 [kJ/mol]
      Elst10,r                     -9.35263881 [mEh]      -5.86886946 [kcal/mol]     -24.55534982 [kJ/mol]
      Elst12,r                      1.05001269 [mEh]       0.65889291 [kcal/mol]       2.75680794 [kJ/mol]

    Exchange                        3.25366028 [mEh]       2.04170265 [kcal/mol]       8.54248388 [kJ/mol]
      Exch10                        2.63972079 [mEh]       1.65644980 [kcal/mol]       6.93058598 [kJ/mol]
      Exch10(S^2)                   2.63653429 [mEh]       1.65445024 [kcal/mol]       6.92221982 [kJ/mol]
      Exch11(S^2)                   0.02482388 [mEh]       0.01557722 [kcal/mol]       0.06517510 [kJ/mol]
      Exch12(S^2)                   0.58911560 [mEh]       0.36967562 [kcal/mol]       1.54672280 [kJ/mol]

    Induction                      -1.55963709 [mEh]      -0.97868705 [kcal/mol]      -4.09482662 [kJ/mol]
      Ind20,r                      -1.67926470 [mEh]      -1.05375451 [kcal/mol]      -4.40890886 [kJ/mol]
      Ind22                        -0.19474739 [mEh]      -0.12220583 [kcal/mol]      -0.51130921 [kJ/mol]
      Exch-Ind20,r                  0.59154277 [mEh]       0.37119869 [kcal/mol]       1.55309533 [kJ/mol]
      Exch-Ind22                    0.06860229 [mEh]       0.04304859 [kcal/mol]       0.18011530 [kJ/mol]
      delta HF,r (2)               -0.34577007 [mEh]      -0.21697399 [kcal/mol]      -0.90781919 [kJ/mol]

    Dispersion                     -2.98885667 [mEh]      -1.87553587 [kcal/mol]      -7.84724210 [kJ/mol]
      Disp20                       -2.82535432 [mEh]      -1.77293660 [kcal/mol]      -7.41796673 [kJ/mol]
      Disp21                        0.18643264 [mEh]       0.11698825 [kcal/mol]       0.48947882 [kJ/mol]
      Disp22 (SDQ)                 -0.05266036 [mEh]      -0.03304487 [kcal/mol]      -0.13825975 [kJ/mol]
      Disp22 (T)                   -0.49349568 [mEh]      -0.30967322 [kcal/mol]      -1.29567274 [kJ/mol]
      Est. Disp22 (T)              -0.55286846 [mEh]      -0.34693020 [kcal/mol]      -1.45155594 [kJ/mol]
      Exch-Disp20                   0.25559383 [mEh]       0.16038755 [kcal/mol]       0.67106150 [kJ/mol]

  Total HF                         -8.14641002 [mEh]      -5.11194946 [kcal/mol]     -21.38839655 [kJ/mol]
  Total SAPT0                     -10.71617050 [mEh]      -6.72449851 [kcal/mol]     -28.13530178 [kJ/mol]
  Total SAPT2                      -9.17836343 [mEh]      -5.75951000 [kcal/mol]     -24.09778986 [kJ/mol]
  Total SAPT2+                     -9.59745961 [mEh]      -6.02249683 [kcal/mol]     -25.19812672 [kJ/mol]

  Special recipe for scaled SAPT0 (see Manual):
    Electrostatics sSAPT0          -9.35263881 [mEh]      -5.86886946 [kcal/mol]     -24.55534982 [kJ/mol]
    Exchange sSAPT0                 2.63972079 [mEh]       1.65644980 [kcal/mol]       6.93058598 [kJ/mol]
    Induction sSAPT0               -1.43134460 [mEh]      -0.89818229 [kcal/mol]      -3.75799472 [kJ/mol]
    Dispersion sSAPT0              -2.56883264 [mEh]      -1.61196682 [kcal/mol]      -6.74446917 [kJ/mol]
  Total sSAPT0                    -10.71309526 [mEh]      -6.72256877 [kcal/mol]     -28.12722772 [kJ/mol]
  --------------------------------------------------------------------------------------------------------

*** Psi4 exiting successfully. Buy a developer a beer!
