                               Psi4 1.4a2.dev224

  ==> Input File <==

--------------------------------------------------------------------------
#Generated by lconvert.py for sapt job

memory 50 GB

molecule  {
0 1
  C      -3.228950   -0.562410    0.903880
  O      -1.614570    1.539640    0.825440
  S      -2.022170    0.445430    1.779810
  C      -0.684770   -0.757880    1.728830
  H      -3.489850   -1.426690    1.511490
  H      -4.097340    0.069480    0.736340
  H      -2.798720   -0.860590   -0.050250
  H      -0.966690   -1.647620    2.288310
  H      -0.479520   -0.990640    0.685940
  H       0.182770   -0.287970    2.183830
--
0 1
  O      -5.577050    3.000170   -0.907080
  H      -4.645850    2.927880   -0.644770
  H      -5.718890    3.941950   -1.011050
units angstrom
no_reorient
symmetry c1
}

set {
scf_type DF
basis aug-cc-pvtz
freeze_core True
guess SAD
}
energy('sapt2+')
--------------------------------------------------------------------------

  //              Dimer HF             //
    Molecular point group: c1
  Charge       = 0
  Multiplicity = 1
  Basis Set: AUG-CC-PVTZ
    Blend: AUG-CC-PVTZ
  Basis Set: (AUG-CC-PVTZ AUX)
    Blend: AUG-CC-PVTZ-JKFIT
  @DF-RHF Final Energy:  -627.71637255945370
    Total Energy =                       -627.7163725594537027
  //            Monomer A HF           //
    Molecular point group: c1
  Multiplicity = 1
  Basis Set: AUG-CC-PVTZ
    Blend: AUG-CC-PVTZ
  Basis Set: (AUG-CC-PVTZ AUX)
    Blend: AUG-CC-PVTZ-JKFIT
  @DF-RHF Final Energy:  -551.65320934227293
    Total Energy =                       -551.6532093422729304
  //            Monomer B HF           //
    Molecular point group: c1

    Geometry (in Angstrom), charge = 0, multiplicity = 1:

       Center              X                  Y                   Z               Mass
    ------------   -----------------  -----------------  -----------------  -----------------
      Gh(C)          -0.637597790229    -1.320039739642    -0.063949542974    12.000000000000
      Gh(O)           0.976782209771     0.782010260358    -0.142389542974    15.994914619570
      Gh(S)           0.569182209771    -0.312199739642     0.811980457026    31.972071174400
      Gh(C)           1.906582209771    -1.515509739642     0.761000457026    12.000000000000
      Gh(H)          -0.898497790229    -2.184319739642     0.543660457026     1.007825032230
      Gh(H)          -1.505987790229    -0.688149739642    -0.231489542974     1.007825032230
      Gh(H)          -0.207367790229    -1.618219739642    -1.018079542974     1.007825032230
      Gh(H)           1.624662209771    -2.405249739642     1.320480457026     1.007825032230
      Gh(H)           2.111832209771    -1.748269739642    -0.281889542974     1.007825032230
      Gh(H)           2.774122209771    -1.045599739642     1.216000457026     1.007825032230
         O           -2.985697790229     2.242540260358    -1.874909542974    15.994914619570
         H           -2.054497790229     2.170250260358    -1.612599542974     1.007825032230
         H           -3.127537790229     3.184320260358    -1.978879542974     1.007825032230

  Charge       = 0
  Multiplicity = 1
  Basis Set: AUG-CC-PVTZ
    Blend: AUG-CC-PVTZ
  Basis Set: (AUG-CC-PVTZ AUX)
    Blend: AUG-CC-PVTZ-JKFIT

    Orbital Energies [Eh]
    ---------------------

    Doubly Occupied:

       1A    -20.568568     2A     -1.350373     3A     -0.713442
       4A     -0.584300     5A     -0.509906

  @DF-RHF Final Energy:   -76.05999103038472

   => Energetics <=

    Nuclear Repulsion Energy =              9.1303523694609137
    One-Electron Energy =                -122.9275067352297697
    Two-Electron Energy =                  37.7371633353841389
    Total Energy =                        -76.0599910303847224

  Dipole Moment: [D]
     X:     1.3250      Y:     1.4674      Z:     0.2656     Total:     1.9948

    SAPT Results
  --------------------------------------------------------------------------------------------------------
    Electrostatics                 -2.61830032 [mEh]      -1.64300826 [kcal/mol]      -6.87434655 [kJ/mol]
      Elst10,r                     -3.08770568 [mEh]      -1.93756456 [kcal/mol]      -8.10677014 [kJ/mol]
      Elst12,r                      0.46940535 [mEh]       0.29455631 [kcal/mol]       1.23242359 [kJ/mol]

    Exchange                        0.08649890 [mEh]       0.05427888 [kcal/mol]       0.22710283 [kJ/mol]
      Exch10                        0.06418851 [mEh]       0.04027890 [kcal/mol]       0.16852690 [kJ/mol]
      Exch10(S^2)                   0.06418525 [mEh]       0.04027685 [kcal/mol]       0.16851834 [kJ/mol]
      Exch11(S^2)                   0.00017891 [mEh]       0.00011227 [kcal/mol]       0.00046972 [kJ/mol]
      Exch12(S^2)                   0.02213148 [mEh]       0.01388772 [kcal/mol]       0.05810620 [kJ/mol]

    Induction                      -0.15139099 [mEh]      -0.09499928 [kcal/mol]      -0.39747699 [kJ/mol]
      Ind20,r                      -0.14968629 [mEh]      -0.09392957 [kcal/mol]      -0.39300131 [kJ/mol]
      Ind22                        -0.00294704 [mEh]      -0.00184929 [kcal/mol]      -0.00773745 [kJ/mol]
      Exch-Ind20,r                  0.01146230 [mEh]       0.00719270 [kcal/mol]       0.03009428 [kJ/mol]
      Exch-Ind22                    0.00022567 [mEh]       0.00014161 [kcal/mol]       0.00059250 [kJ/mol]
      delta HF,r (2)               -0.01044564 [mEh]      -0.00655474 [kcal/mol]      -0.02742501 [kJ/mol]

    Dispersion                     -0.54303285 [mEh]      -0.34075826 [kcal/mol]      -1.42573255 [kJ/mol]
      Disp20                       -0.49003972 [mEh]      -0.30750457 [kcal/mol]      -1.28659911 [kJ/mol]
      Disp21                        0.04189030 [mEh]       0.02628656 [kcal/mol]       0.10998296 [kJ/mol]
      Disp22 (SDQ)                 -0.00411133 [mEh]      -0.00257990 [kcal/mol]      -0.01079430 [kJ/mol]
      Disp22 (T)                   -0.09309176 [mEh]      -0.05841596 [kcal/mol]      -0.24441237 [kJ/mol]
      Est. Disp22 (T)              -0.09882158 [mEh]      -0.06201148 [kcal/mol]      -0.25945602 [kJ/mol]
      Exch-Disp20                   0.00804948 [mEh]       0.00505113 [kcal/mol]       0.02113391 [kJ/mol]

  Total HF                         -3.17218680 [mEh]      -1.99057727 [kcal/mol]      -8.32857529 [kJ/mol]
  Total SAPT0                      -3.65417703 [mEh]      -2.29303071 [kcal/mol]      -9.59404048 [kJ/mol]
  Total SAPT2                      -3.16518266 [mEh]      -1.98618210 [kcal/mol]      -8.31018592 [kJ/mol]
  Total SAPT2+                     -3.22622526 [mEh]      -2.02448692 [kcal/mol]      -8.47045327 [kJ/mol]

  Special recipe for scaled SAPT0 (see Manual):
    Electrostatics sSAPT0          -3.08770568 [mEh]      -1.93756456 [kcal/mol]      -8.10677014 [kJ/mol]
    Exchange sSAPT0                 0.06418851 [mEh]       0.04027890 [kcal/mol]       0.16852690 [kJ/mol]
    Induction sSAPT0               -0.14866788 [mEh]      -0.09329050 [kcal/mol]      -0.39032746 [kJ/mol]
    Dispersion sSAPT0              -0.48198901 [mEh]      -0.30245267 [kcal/mol]      -1.26546198 [kJ/mol]
  Total sSAPT0                     -3.65417406 [mEh]      -2.29302884 [kcal/mol]      -9.59403268 [kJ/mol]
  --------------------------------------------------------------------------------------------------------

*** Psi4 exiting successfully. Buy a developer a beer!
