                               Psi4 1.4a2.dev224

  ==> Input File <==

--------------------------------------------------------------------------
#Generated by lconvert.py for sapt job

memory 50 GB

molecule  {
0 1
  C      -2.107810   -0.338730   -0.096960
  O      -1.410460    1.092430    2.026580
  S      -2.470810    0.107210    1.605410
  C      -1.971690   -1.467620    2.329000
  H      -2.738710   -1.173950   -0.395750
  H      -2.337850    0.544110   -0.687880
  H      -1.051820   -0.596400   -0.159100
  H      -2.624140   -2.262990    1.973910
  H      -0.934250   -1.654180    2.058430
  H      -2.060910   -1.363510    3.406940
--
0 1
  C      -3.367920    5.595210    1.190710
  O      -3.572270    4.206150   -1.062860
  S      -3.080420    5.547580   -0.587530
  C      -1.286480    5.416450   -0.471360
  H      -2.962330    6.520950    1.595590
  H      -4.445430    5.569650    1.331570
  H      -2.893800    4.720880    1.634540
  H      -0.884990    6.323280   -0.022330
  H      -1.053890    4.534580    0.124000
  H      -0.914110    5.310840   -1.487230
units angstrom
no_reorient
symmetry c1
}

set {
scf_type DF
basis aug-cc-pvtz
freeze_core True
guess SAD
}
energy('sapt2+')
--------------------------------------------------------------------------

  //              Dimer HF             //
    Molecular point group: c1
  Charge       = 0
  Multiplicity = 1
  Basis Set: AUG-CC-PVTZ
    Blend: AUG-CC-PVTZ
  Basis Set: (AUG-CC-PVTZ AUX)
    Blend: AUG-CC-PVTZ-JKFIT
  @DF-RHF Final Energy: -1103.31012762626210
    Total Energy =                      -1103.3101276262621013
  //            Monomer A HF           //
    Molecular point group: c1
  Multiplicity = 1
  Basis Set: AUG-CC-PVTZ
    Blend: AUG-CC-PVTZ
  Basis Set: (AUG-CC-PVTZ AUX)
    Blend: AUG-CC-PVTZ-JKFIT
  @DF-RHF Final Energy:  -551.65306854331345
    Total Energy =                       -551.6530685433134522
  //            Monomer B HF           //
    Molecular point group: c1

    Geometry (in Angstrom), charge = 0, multiplicity = 1:

       Center              X                  Y                   Z               Mass
    ------------   -----------------  -----------------  -----------------  -----------------
      Gh(C)           0.373070803162    -2.919613864386    -0.691860522264    12.000000000000
      Gh(O)           1.070420803162    -1.488453864386     1.431679477736    15.994914619570
      Gh(S)           0.010070803162    -2.473673864386     1.010509477736    31.972071174400
      Gh(C)           0.509190803162    -4.048503864386     1.734099477736    12.000000000000
      Gh(H)          -0.257829196838    -3.754833864386    -0.990650522264     1.007825032230
      Gh(H)           0.143030803162    -2.036773864386    -1.282780522264     1.007825032230
      Gh(H)           1.429060803162    -3.177283864386    -0.754000522264     1.007825032230
      Gh(H)          -0.143259196838    -4.843873864386     1.379009477736     1.007825032230
      Gh(H)           1.546630803162    -4.235063864386     1.463529477736     1.007825032230
      Gh(H)           0.419970803162    -3.944393864386     2.812039477736     1.007825032230
         C           -0.887039196838     3.014326135614     0.595809477736    12.000000000000
         O           -1.091389196838     1.625266135614    -1.657760522264    15.994914619570
         S           -0.599539196838     2.966696135614    -1.182430522264    31.972071174400
         C            1.194400803162     2.835566135614    -1.066260522264    12.000000000000
         H           -0.481449196838     3.940066135614     1.000689477736     1.007825032230
         H           -1.964549196838     2.988766135614     0.736669477736     1.007825032230
         H           -0.412919196838     2.139996135614     1.039639477736     1.007825032230
         H            1.595890803162     3.742396135614    -0.617230522264     1.007825032230
         H            1.426990803162     1.953696135614    -0.470900522264     1.007825032230
         H            1.566770803162     2.729956135614    -2.082130522264     1.007825032230

  Charge       = 0
  Multiplicity = 1
  Basis Set: AUG-CC-PVTZ
    Blend: AUG-CC-PVTZ
  Basis Set: (AUG-CC-PVTZ AUX)
    Blend: AUG-CC-PVTZ-JKFIT

    Orbital Energies [Eh]
    ---------------------

    Doubly Occupied:

       1A    -92.069337     2A    -20.502357     3A    -11.263378
       4A    -11.263366     5A     -9.056246     6A     -6.737958
       7A     -6.737748     8A     -6.736373     9A     -1.329448
      10A     -1.068018    11A     -0.977584    12A     -0.817028
      13A     -0.647874    14A     -0.629398    15A     -0.622033
      16A     -0.588390    17A     -0.561025    18A     -0.544864
      19A     -0.512525    20A     -0.417607    21A     -0.369080

  @DF-RHF Final Energy:  -551.65301285783664

   => Energetics <=

    Nuclear Repulsion Energy =            184.2917272129500077
    One-Electron Energy =               -1124.9861978741971598
    Two-Electron Energy =                 389.0414578034104807
    Total Energy =                       -551.6530128578366430

  Dipole Moment: [D]
     X:     2.4622      Y:     2.8660      Z:     2.7846     Total:     4.6937

    SAPT Results
  --------------------------------------------------------------------------------------------------------
    Electrostatics                 -2.92945826 [mEh]      -1.83826281 [kcal/mol]      -7.69129160 [kJ/mol]
      Elst10,r                     -3.75920328 [mEh]      -2.35893567 [kcal/mol]      -9.86978686 [kJ/mol]
      Elst12,r                      0.82974502 [mEh]       0.52067286 [kcal/mol]       2.17849526 [kJ/mol]

    Exchange                        0.12736665 [mEh]       0.07992378 [kcal/mol]       0.33440109 [kJ/mol]
      Exch10                        0.08554038 [mEh]       0.05367740 [kcal/mol]       0.22458624 [kJ/mol]
      Exch10(S^2)                   0.08553414 [mEh]       0.05367348 [kcal/mol]       0.22456985 [kJ/mol]
      Exch11(S^2)                  -0.00255688 [mEh]      -0.00160446 [kcal/mol]      -0.00671308 [kJ/mol]
      Exch12(S^2)                   0.04438314 [mEh]       0.02785084 [kcal/mol]       0.11652792 [kJ/mol]

    Induction                      -0.33575344 [mEh]      -0.21068847 [kcal/mol]      -0.88152054 [kJ/mol]
      Ind20,r                      -0.37781869 [mEh]      -0.23708480 [kcal/mol]      -0.99196282 [kJ/mol]
      Ind22                         0.03902451 [mEh]       0.02448825 [kcal/mol]       0.10245883 [kJ/mol]
      Exch-Ind20,r                  0.02145184 [mEh]       0.01346123 [kcal/mol]       0.05632180 [kJ/mol]
      Exch-Ind22                   -0.00221574 [mEh]      -0.00139040 [kcal/mol]      -0.00581742 [kJ/mol]
      delta HF,r (2)               -0.01619537 [mEh]      -0.01016275 [kcal/mol]      -0.04252093 [kJ/mol]

    Dispersion                     -1.12509696 [mEh]      -0.70600900 [kcal/mol]      -2.95394165 [kJ/mol]
      Disp20                       -1.04994639 [mEh]      -0.65885130 [kcal/mol]      -2.75663385 [kJ/mol]
      Disp21                        0.18804472 [mEh]       0.11799984 [kcal/mol]       0.49371135 [kJ/mol]
      Disp22 (SDQ)                 -0.04355024 [mEh]      -0.02732819 [kcal/mol]      -0.11434114 [kJ/mol]
      Disp22 (T)                   -0.22518128 [mEh]      -0.14130338 [kcal/mol]      -0.59121336 [kJ/mol]
      Est. Disp22 (T)              -0.23555547 [mEh]      -0.14781329 [kcal/mol]      -0.61845080 [kJ/mol]
      Exch-Disp20                   0.01591041 [mEh]       0.00998394 [kcal/mol]       0.04177279 [kJ/mol]

  Total HF                         -4.04622511 [mEh]      -2.53904459 [kcal/mol]     -10.62336257 [kJ/mol]
  Total SAPT0                      -5.08026108 [mEh]      -3.18791196 [kcal/mol]     -13.33822364 [kJ/mol]
  Total SAPT2                      -4.17188102 [mEh]      -2.61789487 [kcal/mol]     -10.95327212 [kJ/mol]
  Total SAPT2+                     -4.26294201 [mEh]      -2.67503650 [kcal/mol]     -11.19235270 [kJ/mol]

  Special recipe for scaled SAPT0 (see Manual):
    Electrostatics sSAPT0          -3.75920328 [mEh]      -2.35893567 [kcal/mol]      -9.86978686 [kJ/mol]
    Exchange sSAPT0                 0.08554038 [mEh]       0.05367740 [kcal/mol]       0.22458624 [kJ/mol]
    Induction sSAPT0               -0.37255751 [mEh]      -0.23378337 [kcal/mol]      -0.97814961 [kJ/mol]
    Dispersion sSAPT0              -1.03403249 [mEh]      -0.64886518 [kcal/mol]      -2.71485192 [kJ/mol]
  Total sSAPT0                     -5.08025290 [mEh]      -3.18790682 [kcal/mol]     -13.33820215 [kJ/mol]
  --------------------------------------------------------------------------------------------------------

*** Psi4 exiting successfully. Buy a developer a beer!
