                               Psi4 1.4a2.dev224

  ==> Input File <==

--------------------------------------------------------------------------
#Generated by lconvert.py for sapt job

memory 50 GB

molecule  {
0 1
  C      -2.107810   -0.338730   -0.096960
  O      -1.410460    1.092430    2.026580
  S      -2.470810    0.107210    1.605410
  C      -1.971690   -1.467620    2.329000
  H      -2.738710   -1.173950   -0.395750
  H      -2.337850    0.544110   -0.687880
  H      -1.051820   -0.596400   -0.159100
  H      -2.624140   -2.262990    1.973910
  H      -0.934250   -1.654180    2.058430
  H      -2.060910   -1.363510    3.406940
--
0 1
  C      -3.243580    4.763030    1.471320
  O      -3.447930    3.373970   -0.782240
  S      -2.956080    4.715400   -0.306910
  C      -1.162140    4.584270   -0.190740
  H      -2.837990    5.688770    1.876210
  H      -4.321090    4.737460    1.612190
  H      -2.769460    3.888700    1.915150
  H      -0.760650    5.491100    0.258290
  H      -0.929550    3.702400    0.404610
  H      -0.789770    4.478660   -1.206610
units angstrom
no_reorient
symmetry c1
}

set {
scf_type DF
basis aug-cc-pvtz
freeze_core True
guess SAD
}
energy('sapt2+')
--------------------------------------------------------------------------

  //              Dimer HF             //
    Molecular point group: c1
  Charge       = 0
  Multiplicity = 1
  Basis Set: AUG-CC-PVTZ
    Blend: AUG-CC-PVTZ
  Basis Set: (AUG-CC-PVTZ AUX)
    Blend: AUG-CC-PVTZ-JKFIT
  @DF-RHF Final Energy: -1103.31394154153691
    Total Energy =                      -1103.3139415415369058
  //            Monomer A HF           //
    Molecular point group: c1
  Multiplicity = 1
  Basis Set: AUG-CC-PVTZ
    Blend: AUG-CC-PVTZ
  Basis Set: (AUG-CC-PVTZ AUX)
    Blend: AUG-CC-PVTZ-JKFIT
  @DF-RHF Final Energy:  -551.65311372825113
    Total Energy =                       -551.6531137282511281
  //            Monomer B HF           //
    Molecular point group: c1

    Geometry (in Angstrom), charge = 0, multiplicity = 1:

       Center              X                  Y                   Z               Mass
    ------------   -----------------  -----------------  -----------------  -----------------
      Gh(C)           0.310900803162    -2.503523799793    -0.832169623985    12.000000000000
      Gh(O)           1.008250803162    -1.072363799793     1.291370376015    15.994914619570
      Gh(S)          -0.052099196838    -2.057583799793     0.870200376015    31.972071174400
      Gh(C)           0.447020803162    -3.632413799793     1.593790376015    12.000000000000
      Gh(H)          -0.319999196838    -3.338743799793    -1.130959623985     1.007825032230
      Gh(H)           0.080860803162    -1.620683799793    -1.423089623985     1.007825032230
      Gh(H)           1.366890803162    -2.761193799793    -0.894309623985     1.007825032230
      Gh(H)          -0.205429196838    -4.427783799793     1.238700376015     1.007825032230
      Gh(H)           1.484460803162    -3.818973799793     1.323220376015     1.007825032230
      Gh(H)           0.357800803162    -3.528303799793     2.671730376015     1.007825032230
         C           -0.824869196838     2.598236200207     0.736110376015    12.000000000000
         O           -1.029219196838     1.209176200207    -1.517449623985    15.994914619570
         S           -0.537369196838     2.550606200207    -1.042119623985    31.972071174400
         C            1.256570803162     2.419476200207    -0.925949623985    12.000000000000
         H           -0.419279196838     3.523976200207     1.141000376015     1.007825032230
         H           -1.902379196838     2.572666200207     0.876980376015     1.007825032230
         H           -0.350749196838     1.723906200207     1.179940376015     1.007825032230
         H            1.658060803162     3.326306200207    -0.476919623985     1.007825032230
         H            1.489160803162     1.537606200207    -0.330599623985     1.007825032230
         H            1.628940803162     2.313866200207    -1.941819623985     1.007825032230

  Charge       = 0
  Multiplicity = 1
  Basis Set: AUG-CC-PVTZ
    Blend: AUG-CC-PVTZ
  Basis Set: (AUG-CC-PVTZ AUX)
    Blend: AUG-CC-PVTZ-JKFIT

    Orbital Energies [Eh]
    ---------------------

    Doubly Occupied:

       1A    -92.069356     2A    -20.502347     3A    -11.263375
       4A    -11.263363     5A     -9.056248     6A     -6.737961
       7A     -6.737750     8A     -6.736374     9A     -1.329440
      10A     -1.068016    11A     -0.977582    12A     -0.817026
      13A     -0.647871    14A     -0.629396    15A     -0.622030
      16A     -0.588387    17A     -0.561023    18A     -0.544861
      19A     -0.512521    20A     -0.417602    21A     -0.369082

  @DF-RHF Final Energy:  -551.65304335561848

   => Energetics <=

    Nuclear Repulsion Energy =            184.2919665984351809
    One-Electron Energy =               -1124.9867944791997161
    Two-Electron Energy =                 389.0417845251459994
    Total Energy =                       -551.6530433556184789

  Dipole Moment: [D]
     X:     2.4614      Y:     2.8663      Z:     2.7840     Total:     4.6930

    SAPT Results
  --------------------------------------------------------------------------------------------------------
    Electrostatics                 -6.42550433 [mEh]      -4.03206484 [kcal/mol]     -16.87015929 [kJ/mol]
      Elst10,r                     -7.82023968 [mEh]      -4.90727449 [kcal/mol]     -20.53203645 [kJ/mol]
      Elst12,r                      1.39473535 [mEh]       0.87520965 [kcal/mol]       3.66187716 [kJ/mol]

    Exchange                        1.84592808 [mEh]       1.15833736 [kcal/mol]       4.84648351 [kJ/mol]
      Exch10                        1.39047327 [mEh]       0.87253515 [kcal/mol]       3.65068707 [kJ/mol]
      Exch10(S^2)                   1.38954473 [mEh]       0.87195248 [kcal/mol]       3.64824920 [kJ/mol]
      Exch11(S^2)                  -0.01307582 [mEh]      -0.00820520 [kcal/mol]      -0.03433057 [kJ/mol]
      Exch12(S^2)                   0.46853064 [mEh]       0.29400741 [kcal/mol]       1.23012702 [kJ/mol]

    Induction                      -1.37147201 [mEh]      -0.86061168 [kcal/mol]      -3.60079926 [kJ/mol]
      Ind20,r                      -1.54314669 [mEh]      -0.96833917 [kcal/mol]      -4.05153107 [kJ/mol]
      Ind22                        -0.02222071 [mEh]      -0.01394370 [kcal/mol]      -0.05834046 [kJ/mol]
      Exch-Ind20,r                  0.37778509 [mEh]       0.23706372 [kcal/mol]       0.99187461 [kJ/mol]
      Exch-Ind22                    0.00543996 [mEh]       0.00341362 [kcal/mol]       0.01428260 [kJ/mol]
      delta HF,r (2)               -0.18932966 [mEh]      -0.11880615 [kcal/mol]      -0.49708494 [kJ/mol]

    Dispersion                     -3.68096054 [mEh]      -2.30983761 [kcal/mol]      -9.66436057 [kJ/mol]
      Disp20                       -3.48242010 [mEh]      -2.18525160 [kcal/mol]      -9.14309271 [kJ/mol]
      Disp21                        0.49995854 [mEh]       0.31372872 [kcal/mol]       1.31264097 [kJ/mol]
      Disp22 (SDQ)                 -0.14114243 [mEh]      -0.08856821 [kcal/mol]      -0.37056941 [kJ/mol]
      Disp22 (T)                   -0.70306353 [mEh]      -0.44117903 [kcal/mol]      -1.84589305 [kJ/mol]
      Est. Disp22 (T)              -0.76059374 [mEh]      -0.47727978 [kcal/mol]      -1.99693858 [kJ/mol]
      Exch-Disp20                   0.20323719 [mEh]       0.12753326 [kcal/mol]       0.53359916 [kJ/mol]

  Total HF                         -7.78445767 [mEh]      -4.88482093 [kcal/mol]     -20.43809079 [kJ/mol]
  Total SAPT0                     -11.06364058 [mEh]      -6.94253928 [kcal/mol]     -29.04758434 [kJ/mol]
  Total SAPT2                      -9.23023116 [mEh]      -5.79205750 [kcal/mol]     -24.23396858 [kJ/mol]
  Total SAPT2+                     -9.63200879 [mEh]      -6.04417677 [kcal/mol]     -25.28883560 [kJ/mol]

  Special recipe for scaled SAPT0 (see Manual):
    Electrostatics sSAPT0          -7.82023968 [mEh]      -4.90727449 [kcal/mol]     -20.53203645 [kJ/mol]
    Exchange sSAPT0                 1.39047327 [mEh]       0.87253515 [kcal/mol]       3.65068707 [kJ/mol]
    Induction sSAPT0               -1.35393341 [mEh]      -0.84960604 [kcal/mol]      -3.55475167 [kJ/mol]
    Dispersion sSAPT0              -3.27877521 [mEh]      -2.05746251 [kcal/mol]      -8.60842313 [kJ/mol]
  Total sSAPT0                    -11.06247503 [mEh]      -6.94180789 [kcal/mol]     -29.04452419 [kJ/mol]
  --------------------------------------------------------------------------------------------------------

*** Psi4 exiting successfully. Buy a developer a beer!
