                               Psi4 1.4a2.dev224

  ==> Input File <==

--------------------------------------------------------------------------
#Generated by lconvert.py for sapt job

memory 50 GB

molecule  {
0 1
  C      -2.107810   -0.338730   -0.096960
  O      -1.410460    1.092430    2.026580
  S      -2.470810    0.107210    1.605410
  C      -1.971690   -1.467620    2.329000
  H      -2.738710   -1.173950   -0.395750
  H      -2.337850    0.544110   -0.687880
  H      -1.051820   -0.596400   -0.159100
  H      -2.624140   -2.262990    1.973910
  H      -0.934250   -1.654180    2.058430
  H      -2.060910   -1.363510    3.406940
--
0 1
  C      -3.492270    6.427390    0.910090
  O      -3.696620    5.038330   -1.343470
  S      -3.204760    6.379770   -0.868140
  C      -1.410820    6.248630   -0.751980
  H      -3.086670    7.353130    1.314970
  H      -4.569770    6.401830    1.050960
  H      -3.018140    5.553060    1.353920
  H      -1.009330    7.155460   -0.302950
  H      -1.178230    5.366760   -0.156620
  H      -1.038450    6.143020   -1.767840
units angstrom
no_reorient
symmetry c1
}

set {
scf_type DF
basis aug-cc-pvtz
freeze_core True
guess SAD
}
energy('sapt2+')
--------------------------------------------------------------------------

  //              Dimer HF             //
    Molecular point group: c1
  Charge       = 0
  Multiplicity = 1
  Basis Set: AUG-CC-PVTZ
    Blend: AUG-CC-PVTZ
  Basis Set: (AUG-CC-PVTZ AUX)
    Blend: AUG-CC-PVTZ-JKFIT
  @DF-RHF Final Energy: -1103.30826030366984
    Total Energy =                      -1103.3082603036700675
  //            Monomer A HF           //
    Molecular point group: c1
  Multiplicity = 1
  Basis Set: AUG-CC-PVTZ
    Blend: AUG-CC-PVTZ
  Basis Set: (AUG-CC-PVTZ AUX)
    Blend: AUG-CC-PVTZ-JKFIT
  @DF-RHF Final Energy:  -551.65304955913632
    Total Energy =                       -551.6530495591362069
  //            Monomer B HF           //
    Molecular point group: c1

    Geometry (in Angstrom), charge = 0, multiplicity = 1:

       Center              X                  Y                   Z               Mass
    ------------   -----------------  -----------------  -----------------  -----------------
      Gh(C)           0.435242597387    -3.335705913512    -0.551553725707    12.000000000000
      Gh(O)           1.132592597387    -1.904545913512     1.571986274293    15.994914619570
      Gh(S)           0.072242597387    -2.889765913512     1.150816274293    31.972071174400
      Gh(C)           0.571362597387    -4.464595913512     1.874406274293    12.000000000000
      Gh(H)          -0.195657402613    -4.170925913512    -0.850343725707     1.007825032230
      Gh(H)           0.205202597387    -2.452865913512    -1.142473725707     1.007825032230
      Gh(H)           1.491232597387    -3.593375913512    -0.613693725707     1.007825032230
      Gh(H)          -0.081087402613    -5.259965913512     1.519316274293     1.007825032230
      Gh(H)           1.608802597387    -4.651155913512     1.603836274293     1.007825032230
      Gh(H)           0.482142597387    -4.360485913512     2.952346274293     1.007825032230
         C           -0.949217402613     3.430414086488     0.455496274293    12.000000000000
         O           -1.153567402613     2.041354086488    -1.798063725707    15.994914619570
         S           -0.661707402613     3.382794086488    -1.322733725707    31.972071174400
         C            1.132232597387     3.251654086488    -1.206573725707    12.000000000000
         H           -0.543617402613     4.356154086488     0.860376274293     1.007825032230
         H           -2.026717402613     3.404854086488     0.596366274293     1.007825032230
         H           -0.475087402613     2.556084086488     0.899326274293     1.007825032230
         H            1.533722597387     4.158484086488    -0.757543725707     1.007825032230
         H            1.364822597387     2.369784086488    -0.611213725707     1.007825032230
         H            1.504602597387     3.146044086488    -2.222433725707     1.007825032230

  Charge       = 0
  Multiplicity = 1
  Basis Set: AUG-CC-PVTZ
    Blend: AUG-CC-PVTZ
  Basis Set: (AUG-CC-PVTZ AUX)
    Blend: AUG-CC-PVTZ-JKFIT

    Orbital Energies [Eh]
    ---------------------

    Doubly Occupied:

       1A    -92.069331     2A    -20.502361     3A    -11.263380
       4A    -11.263368     5A     -9.056246     6A     -6.737958
       7A     -6.737747     8A     -6.736372     9A     -1.329444
      10A     -1.068021    11A     -0.977588    12A     -0.817030
      13A     -0.647875    14A     -0.629402    15A     -0.622034
      16A     -0.588391    17A     -0.561022    18A     -0.544869
      19A     -0.512523    20A     -0.417608    21A     -0.369079

  @DF-RHF Final Energy:  -551.65299773249558

   => Energetics <=

    Nuclear Repulsion Energy =            184.2915366836821818
    One-Electron Energy =               -1124.9857673363367212
    Two-Electron Energy =                 389.0412329201590182
    Total Energy =                       -551.6529977324955780

  Dipole Moment: [D]
     X:     2.4628      Y:     2.8659      Z:     2.7854     Total:     4.6944

    SAPT Results
  --------------------------------------------------------------------------------------------------------
    Electrostatics                 -1.60347276 [mEh]      -1.00619435 [kcal/mol]      -4.20991714 [kJ/mol]
      Elst10,r                     -2.08567139 [mEh]      -1.30877856 [kcal/mol]      -5.47592948 [kJ/mol]
      Elst12,r                      0.48219863 [mEh]       0.30258421 [kcal/mol]       1.26601234 [kJ/mol]

    Exchange                        0.00862369 [mEh]       0.00541145 [kcal/mol]       0.02264151 [kJ/mol]
      Exch10                        0.00521645 [mEh]       0.00327337 [kcal/mol]       0.01369578 [kJ/mol]
      Exch10(S^2)                   0.00521641 [mEh]       0.00327335 [kcal/mol]       0.01369569 [kJ/mol]
      Exch11(S^2)                  -0.00025995 [mEh]      -0.00016312 [kcal/mol]      -0.00068251 [kJ/mol]
      Exch12(S^2)                   0.00366720 [mEh]       0.00230120 [kcal/mol]       0.00962823 [kJ/mol]

    Induction                      -0.11301701 [mEh]      -0.07091925 [kcal/mol]      -0.29672612 [kJ/mol]
      Ind20,r                      -0.13142292 [mEh]      -0.08246913 [kcal/mol]      -0.34505082 [kJ/mol]
      Ind22                         0.01970995 [mEh]       0.01236818 [kcal/mol]       0.05174846 [kJ/mol]
      Exch-Ind20,r                  0.00113263 [mEh]       0.00071074 [kcal/mol]       0.00297372 [kJ/mol]
      Exch-Ind22                   -0.00016986 [mEh]      -0.00010659 [kcal/mol]      -0.00044598 [kJ/mol]
      delta HF,r (2)               -0.00226681 [mEh]      -0.00142245 [kcal/mol]      -0.00595151 [kJ/mol]

    Dispersion                     -0.41661429 [mEh]      -0.26142941 [kcal/mol]      -1.09382066 [kJ/mol]
      Disp20                       -0.39507302 [mEh]      -0.24791206 [kcal/mol]      -1.03726408 [kJ/mol]
      Disp21                        0.08165034 [mEh]       0.05123636 [kcal/mol]       0.21437293 [kJ/mol]
      Disp22 (SDQ)                 -0.01541651 [mEh]      -0.00967401 [kcal/mol]      -0.04047604 [kJ/mol]
      Disp22 (T)                   -0.08646913 [mEh]      -0.05426020 [kcal/mol]      -0.22702467 [kJ/mol]
      Est. Disp22 (T)              -0.08895361 [mEh]      -0.05581923 [kcal/mol]      -0.23354767 [kJ/mol]
      Exch-Disp20                   0.00117851 [mEh]       0.00073953 [kcal/mol]       0.00309419 [kJ/mol]

  Total HF                         -2.21301204 [mEh]      -1.38868602 [kcal/mol]      -5.81026231 [kJ/mol]
  Total SAPT0                      -2.60690655 [mEh]      -1.63585856 [kcal/mol]      -6.84443219 [kJ/mol]
  Total SAPT2                      -2.10176058 [mEh]      -1.31887468 [kcal/mol]      -5.51817165 [kJ/mol]
  Total SAPT2+                     -2.12448036 [mEh]      -1.33313155 [kcal/mol]      -5.57782242 [kJ/mol]

  Special recipe for scaled SAPT0 (see Manual):
    Electrostatics sSAPT0          -2.08567139 [mEh]      -1.30877856 [kcal/mol]      -5.47592948 [kJ/mol]
    Exchange sSAPT0                 0.00521645 [mEh]       0.00327337 [kcal/mol]       0.01369578 [kJ/mol]
    Induction sSAPT0               -0.13255710 [mEh]      -0.08318083 [kcal/mol]      -0.34802861 [kJ/mol]
    Dispersion sSAPT0              -0.39389451 [mEh]      -0.24717254 [kcal/mol]      -1.03416989 [kJ/mol]
  Total sSAPT0                     -2.60690655 [mEh]      -1.63585856 [kcal/mol]      -6.84443219 [kJ/mol]
  --------------------------------------------------------------------------------------------------------

*** Psi4 exiting successfully. Buy a developer a beer!
