                               Psi4 1.4a2.dev224

  ==> Input File <==

--------------------------------------------------------------------------
#Generated by lconvert.py for sapt job

memory 50 GB

molecule  {
-2 1
  P      -0.321200   -0.025860    0.314430
  O       1.132510    0.129150    0.830850
  O      -0.696140    1.645480    0.021780
  O      -1.299460   -0.466420    1.414610
  O      -0.493910   -0.705980   -1.035360
  H       0.114110    2.006680    0.392980
--
0 1
  O       1.168500   -0.563710    4.431450
  H       1.664080   -0.320080    3.616820
  H       0.321450   -0.624090    3.930760
units angstrom
no_reorient
symmetry c1
}

set {
scf_type DF
basis aug-cc-pvtz
freeze_core True
guess SAD
}
energy('sapt2+')
--------------------------------------------------------------------------

  //              Dimer HF             //
    Molecular point group: c1
  Charge       = -2
  Multiplicity = 1
  Basis Set: AUG-CC-PVTZ
    Blend: AUG-CC-PVTZ
  Basis Set: (AUG-CC-PVTZ AUX)
    Blend: AUG-CC-PVTZ-JKFIT
  @DF-RHF Final Energy:  -717.00688046482514
    Total Energy =                       -717.0068804648251444
  //            Monomer A HF           //
    Molecular point group: c1
  Multiplicity = 1
  Basis Set: AUG-CC-PVTZ
    Blend: AUG-CC-PVTZ
  Basis Set: (AUG-CC-PVTZ AUX)
    Blend: AUG-CC-PVTZ-JKFIT
  @DF-RHF Final Energy:  -640.92157567101572
    Total Energy =                       -640.9215756710157166
  //            Monomer B HF           //
    Molecular point group: c1

    Geometry (in Angstrom), charge = 0, multiplicity = 1:

       Center              X                  Y                   Z               Mass
    ------------   -----------------  -----------------  -----------------  -----------------
      Gh(P)          -0.226020814984    -0.033633560842    -0.636035336579    30.973761998420
      Gh(O)           1.227689185016     0.121376439158    -0.119615336579    15.994914619570
      Gh(O)          -0.600960814984     1.637706439158    -0.928685336579    15.994914619570
      Gh(O)          -1.204280814984    -0.474193560842     0.464144663421    15.994914619570
      Gh(O)          -0.398730814984    -0.713753560842    -1.985825336579    15.994914619570
      Gh(H)           0.209289185016     1.998906439158    -0.557485336579     1.007825032230
         O            1.263679185016    -0.571483560842     3.480984663421    15.994914619570
         H            1.759259185016    -0.327853560842     2.666354663421     1.007825032230
         H            0.416629185016    -0.631863560842     2.980294663421     1.007825032230

  Charge       = 0
  Multiplicity = 1
  Basis Set: AUG-CC-PVTZ
    Blend: AUG-CC-PVTZ
  Basis Set: (AUG-CC-PVTZ AUX)
    Blend: AUG-CC-PVTZ-JKFIT

    Orbital Energies [Eh]
    ---------------------

    Doubly Occupied:

       1A    -20.577389     2A     -1.349162     3A     -0.677094
       4A     -0.605030     5A     -0.511903

  @DF-RHF Final Energy:   -76.05257453581240

   => Energetics <=

    Nuclear Repulsion Energy =              8.9706576608935897
    One-Electron Energy =                -122.6053079168164999
    Two-Electron Energy =                  37.5820757201105096
    Total Energy =                        -76.0525745358123970

  Dipole Moment: [D]
     X:    -0.5645      Y:     0.2950      Z:    -2.1161     Total:     2.2098

    SAPT Results
  --------------------------------------------------------------------------------------------------------
    Electrostatics                -27.39478025 [mEh]     -17.19048414 [kcal/mol]     -71.92498565 [kJ/mol]
      Elst10,r                    -29.17108039 [mEh]     -18.30512931 [kcal/mol]     -76.58866102 [kJ/mol]
      Elst12,r                      1.77630014 [mEh]       1.11464517 [kcal/mol]       4.66367537 [kJ/mol]

    Exchange                        2.44529829 [mEh]       1.53444784 [kcal/mol]       6.42012978 [kJ/mol]
      Exch10                        1.65652568 [mEh]       1.03948556 [kcal/mol]       4.34920758 [kJ/mol]
      Exch10(S^2)                   1.65549894 [mEh]       1.03884127 [kcal/mol]       4.34651186 [kJ/mol]
      Exch11(S^2)                   0.07855096 [mEh]       0.04929147 [kcal/mol]       0.20623553 [kJ/mol]
      Exch12(S^2)                   0.71022165 [mEh]       0.44567081 [kcal/mol]       1.86468668 [kJ/mol]

    Induction                      -6.02678782 [mEh]      -3.78186646 [kcal/mol]     -15.82332925 [kJ/mol]
      Ind20,r                      -5.72728092 [mEh]      -3.59392304 [kcal/mol]     -15.03697399 [kJ/mol]
      Ind22                        -0.94009802 [mEh]      -0.58992041 [kcal/mol]      -2.46822701 [kJ/mol]
      Exch-Ind20,r                  0.78597809 [mEh]       0.49320870 [kcal/mol]       2.06358519 [kJ/mol]
      Exch-Ind22                    0.12901348 [mEh]       0.08095718 [kcal/mol]       0.33872485 [kJ/mol]
      delta HF,r (2)               -0.27440045 [mEh]      -0.17218888 [kcal/mol]      -0.72043829 [kJ/mol]

    Dispersion                     -2.50841716 [mEh]      -1.57405553 [kcal/mol]      -6.58584834 [kJ/mol]
      Disp20                       -2.09645163 [mEh]      -1.31554326 [kcal/mol]      -5.50423300 [kJ/mol]
      Disp21                        0.07307114 [mEh]       0.04585283 [kcal/mol]       0.19184826 [kJ/mol]
      Disp22 (SDQ)                 -0.21688367 [mEh]      -0.13609656 [kcal/mol]      -0.56942800 [kJ/mol]
      Disp22 (T)                   -0.45083358 [mEh]      -0.28290234 [kcal/mol]      -1.18366340 [kJ/mol]
      Est. Disp22 (T)              -0.51504817 [mEh]      -0.32319761 [kcal/mol]      -1.35225879 [kJ/mol]
      Exch-Disp20                   0.24689518 [mEh]       0.15492906 [kcal/mol]       0.64822320 [kJ/mol]

  Total HF                        -32.73025800 [mEh]     -20.53854697 [kcal/mol]     -85.93328053 [kJ/mol]
  Total SAPT0                     -34.57981445 [mEh]     -21.69916117 [kcal/mol]     -90.78929034 [kJ/mol]
  Total SAPT2                     -32.82582624 [mEh]     -20.59851695 [kcal/mol]     -86.18419492 [kJ/mol]
  Total SAPT2+                    -33.48468694 [mEh]     -21.01195828 [kcal/mol]     -87.91403345 [kJ/mol]

  Special recipe for scaled SAPT0 (see Manual):
    Electrostatics sSAPT0         -29.17108039 [mEh]     -18.30512931 [kcal/mol]     -76.58866102 [kJ/mol]
    Exchange sSAPT0                 1.65652568 [mEh]       1.03948556 [kcal/mol]       4.34920758 [kJ/mol]
    Induction sSAPT0               -5.21423998 [mEh]      -3.27198499 [kcal/mol]     -13.68998518 [kJ/mol]
    Dispersion sSAPT0              -1.84909679 [mEh]      -1.16032576 [kcal/mol]      -4.85480296 [kJ/mol]
  Total sSAPT0                    -34.57789148 [mEh]     -21.69795449 [kcal/mol]     -90.78424158 [kJ/mol]
  --------------------------------------------------------------------------------------------------------

*** Psi4 exiting successfully. Buy a developer a beer!
