                               Psi4 1.4a2.dev224

  ==> Input File <==

--------------------------------------------------------------------------
#Generated by lconvert.py for sapt job

memory 50 GB

molecule  {
-2 1
  P      -0.321200   -0.025860    0.314430
  O       1.132510    0.129150    0.830850
  O      -0.696140    1.645480    0.021780
  O      -1.299460   -0.466420    1.414610
  O      -0.493910   -0.705980   -1.035360
  H       0.114110    2.006680    0.392980
--
0 1
  O       1.470160   -0.593050    4.899720
  H       1.965750   -0.349420    4.085090
  H       0.623120   -0.653440    4.399040
units angstrom
no_reorient
symmetry c1
}

set {
scf_type DF
basis aug-cc-pvtz
freeze_core True
guess SAD
}
energy('sapt2+')
--------------------------------------------------------------------------

  //              Dimer HF             //
    Molecular point group: c1
  Charge       = -2
  Multiplicity = 1
  Basis Set: AUG-CC-PVTZ
    Blend: AUG-CC-PVTZ
  Basis Set: (AUG-CC-PVTZ AUX)
    Blend: AUG-CC-PVTZ-JKFIT
  @DF-RHF Final Energy:  -716.99917875360052
    Total Energy =                       -716.9991787536005177
  //            Monomer A HF           //
    Molecular point group: c1
  Multiplicity = 1
  Basis Set: AUG-CC-PVTZ
    Blend: AUG-CC-PVTZ
  Basis Set: (AUG-CC-PVTZ AUX)
    Blend: AUG-CC-PVTZ-JKFIT
  @DF-RHF Final Energy:  -640.92153777974272
    Total Energy =                       -640.9215377797427209
  //            Monomer B HF           //
    Molecular point group: c1

    Geometry (in Angstrom), charge = 0, multiplicity = 1:

       Center              X                  Y                   Z               Mass
    ------------   -----------------  -----------------  -----------------  -----------------
      Gh(P)          -0.273691261648    -0.028996975311    -0.710034487672    30.973761998420
      Gh(O)           1.180018738352     0.126013024689    -0.193614487672    15.994914619570
      Gh(O)          -0.648631261648     1.642343024689    -1.002684487672    15.994914619570
      Gh(O)          -1.251951261648    -0.469556975311     0.390145512328    15.994914619570
      Gh(O)          -0.446401261648    -0.709116975311    -2.059824487672    15.994914619570
      Gh(H)           0.161618738352     2.003543024689    -0.631484487672     1.007825032230
         O            1.517668738352    -0.596186975311     3.875255512328    15.994914619570
         H            2.013258738352    -0.352556975311     3.060625512328     1.007825032230
         H            0.670628738352    -0.656576975311     3.374575512328     1.007825032230

  Charge       = 0
  Multiplicity = 1
  Basis Set: AUG-CC-PVTZ
    Blend: AUG-CC-PVTZ
  Basis Set: (AUG-CC-PVTZ AUX)
    Blend: AUG-CC-PVTZ-JKFIT

    Orbital Energies [Eh]
    ---------------------

    Doubly Occupied:

       1A    -20.577394     2A     -1.349174     3A     -0.677109
       4A     -0.605035     5A     -0.511912

  @DF-RHF Final Energy:   -76.05256524280927

   => Energetics <=

    Nuclear Repulsion Energy =              8.9706913764954344
    One-Electron Energy =                -122.6052626915666082
    Two-Electron Energy =                  37.5820060722619047
    Total Energy =                        -76.0525652428092656

  Dipole Moment: [D]
     X:    -0.5645      Y:     0.2950      Z:    -2.1163     Total:     2.2100

    SAPT Results
  --------------------------------------------------------------------------------------------------------
    Electrostatics                -20.75210446 [mEh]     -13.02214215 [kcal/mol]     -54.48464276 [kJ/mol]
      Elst10,r                    -22.29961619 [mEh]     -13.99322042 [kcal/mol]     -58.54763423 [kJ/mol]
      Elst12,r                      1.54751173 [mEh]       0.97107827 [kcal/mol]       4.06299148 [kJ/mol]

    Exchange                        0.58955990 [mEh]       0.36995442 [kcal/mol]       1.54788930 [kJ/mol]
      Exch10                        0.36150729 [mEh]       0.22684925 [kcal/mol]       0.94913725 [kJ/mol]
      Exch10(S^2)                   0.36144028 [mEh]       0.22680720 [kcal/mol]       0.94896132 [kJ/mol]
      Exch11(S^2)                   0.01909877 [mEh]       0.01198466 [kcal/mol]       0.05014381 [kJ/mol]
      Exch12(S^2)                   0.20895384 [mEh]       0.13112052 [kcal/mol]       0.54860824 [kJ/mol]

    Induction                      -3.59513380 [mEh]      -2.25598052 [kcal/mol]      -9.43902248 [kJ/mol]
      Ind20,r                      -3.30803227 [mEh]      -2.07582159 [kcal/mol]      -8.68523754 [kJ/mol]
      Ind22                        -0.48910301 [mEh]      -0.30691677 [kcal/mol]      -1.28413977 [kJ/mol]
      Exch-Ind20,r                  0.21366712 [mEh]       0.13407814 [kcal/mol]       0.56098294 [kJ/mol]
      Exch-Ind22                    0.03159136 [mEh]       0.01982388 [kcal/mol]       0.08294310 [kJ/mol]
      delta HF,r (2)               -0.04325699 [mEh]      -0.02714417 [kcal/mol]      -0.11357121 [kJ/mol]

    Dispersion                     -1.09067801 [mEh]      -0.68441078 [kcal/mol]      -2.86357472 [kJ/mol]
      Disp20                       -0.86875173 [mEh]      -0.54514994 [kcal/mol]      -2.28090735 [kJ/mol]
      Disp21                        0.03830592 [mEh]       0.02403733 [kcal/mol]       0.10057219 [kJ/mol]
      Disp22 (SDQ)                 -0.10105463 [mEh]      -0.06341274 [kcal/mol]      -0.26531890 [kJ/mol]
      Disp22 (T)                   -0.19722659 [mEh]      -0.12376155 [kcal/mol]      -0.51781834 [kJ/mol]
      Est. Disp22 (T)              -0.22159870 [mEh]      -0.13905528 [kcal/mol]      -0.58180731 [kJ/mol]
      Exch-Disp20                   0.06242112 [mEh]       0.03916985 [kcal/mol]       0.16388664 [kJ/mol]

  Total HF                        -25.07573105 [mEh]     -15.73525879 [kcal/mol]     -65.83632280 [kJ/mol]
  Total SAPT0                     -25.88206165 [mEh]     -16.24123889 [kcal/mol]     -67.95334351 [kJ/mol]
  Total SAPT2                     -24.56400896 [mEh]     -15.41414834 [kcal/mol]     -64.49279665 [kJ/mol]
  Total SAPT2+                    -24.84835637 [mEh]     -15.59257903 [kcal/mol]     -65.23935066 [kJ/mol]

  Special recipe for scaled SAPT0 (see Manual):
    Electrostatics sSAPT0         -22.29961619 [mEh]     -13.99322042 [kcal/mol]     -58.54763423 [kJ/mol]
    Exchange sSAPT0                 0.36150729 [mEh]       0.22684925 [kcal/mol]       0.94913725 [kJ/mol]
    Induction sSAPT0               -3.13750329 [mEh]      -1.96881304 [kcal/mol]      -8.23751376 [kJ/mol]
    Dispersion sSAPT0              -0.80629588 [mEh]      -0.50595830 [kcal/mol]      -2.11692954 [kJ/mol]
  Total sSAPT0                    -25.88190807 [mEh]     -16.24114251 [kcal/mol]     -67.95294028 [kJ/mol]
  --------------------------------------------------------------------------------------------------------

*** Psi4 exiting successfully. Buy a developer a beer!
