                               Psi4 1.4a2.dev224

  ==> Input File <==

--------------------------------------------------------------------------
#Generated by lconvert.py for sapt job

memory 50 GB

molecule  {
-2 1
  P      -0.321200   -0.025860    0.314430
  O       1.132510    0.129150    0.830850
  O      -0.696140    1.645480    0.021780
  O      -1.299460   -0.466420    1.414610
  O      -0.493910   -0.705980   -1.035360
  H       0.114110    2.006680    0.392980
--
0 1
  O       0.866830   -0.534360    3.963170
  H       1.362420   -0.290740    3.148540
  H       0.019790   -0.594750    3.462490
units angstrom
no_reorient
symmetry c1
}

set {
scf_type DF
basis aug-cc-pvtz
freeze_core True
guess SAD
}
energy('sapt2+')
--------------------------------------------------------------------------

  //              Dimer HF             //
    Molecular point group: c1
  Charge       = -2
  Multiplicity = 1
  Basis Set: AUG-CC-PVTZ
    Blend: AUG-CC-PVTZ
  Basis Set: (AUG-CC-PVTZ AUX)
    Blend: AUG-CC-PVTZ-JKFIT
  @DF-RHF Final Energy:  -717.01703312006225
    Total Energy =                       -717.0170331200622513
  //            Monomer A HF           //
    Molecular point group: c1
  Multiplicity = 1
  Basis Set: AUG-CC-PVTZ
    Blend: AUG-CC-PVTZ
  Basis Set: (AUG-CC-PVTZ AUX)
    Blend: AUG-CC-PVTZ-JKFIT
  @DF-RHF Final Energy:  -640.92166756303868
    Total Energy =                       -640.9216675630386817
  //            Monomer B HF           //
    Molecular point group: c1

    Geometry (in Angstrom), charge = 0, multiplicity = 1:

       Center              X                  Y                   Z               Mass
    ------------   -----------------  -----------------  -----------------  -----------------
      Gh(P)          -0.178349141764    -0.038271461356    -0.562034782076    30.973761998420
      Gh(O)           1.275360858236     0.116738538644    -0.045614782076    15.994914619570
      Gh(O)          -0.553289141764     1.633068538644    -0.854684782076    15.994914619570
      Gh(O)          -1.156609141764    -0.478831461356     0.538145217924    15.994914619570
      Gh(O)          -0.351059141764    -0.718391461356    -1.911824782076    15.994914619570
      Gh(H)           0.256960858236     1.994268538644    -0.483484782076     1.007825032230
         O            1.009680858236    -0.546771461356     3.086705217924    15.994914619570
         H            1.505270858236    -0.303151461356     2.272075217924     1.007825032230
         H            0.162640858236    -0.607161461356     2.586025217924     1.007825032230

  Charge       = 0
  Multiplicity = 1
  Basis Set: AUG-CC-PVTZ
    Blend: AUG-CC-PVTZ
  Basis Set: (AUG-CC-PVTZ AUX)
    Blend: AUG-CC-PVTZ-JKFIT

    Orbital Energies [Eh]
    ---------------------

    Doubly Occupied:

       1A    -20.577370     2A     -1.349141     3A     -0.677077
       4A     -0.605012     5A     -0.511891

  @DF-RHF Final Energy:   -76.05259419981904

   => Energetics <=

    Nuclear Repulsion Energy =              8.9707027674918134
    One-Electron Energy =                -122.6056089806827316
    Two-Electron Energy =                  37.5823120133718831
    Total Energy =                        -76.0525941998190262

  Dipole Moment: [D]
     X:    -0.5644      Y:     0.2948      Z:    -2.1157     Total:     2.2094

    SAPT Results
  --------------------------------------------------------------------------------------------------------
    Electrostatics                -39.51633887 [mEh]     -24.79687701 [kcal/mol]    -103.75013340 [kJ/mol]
      Elst10,r                    -41.25779046 [mEh]     -25.88965438 [kcal/mol]    -108.32231394 [kJ/mol]
      Elst12,r                      1.74145160 [mEh]       1.09277737 [kcal/mol]       4.57218053 [kJ/mol]

    Exchange                       10.79055691 [mEh]       6.77117669 [kcal/mol]      28.33060327 [kJ/mol]
      Exch10                        8.06864342 [mEh]       5.06315019 [kcal/mol]      21.18422039 [kJ/mol]
      Exch10(S^2)                   8.05025997 [mEh]       5.05161440 [kcal/mol]      21.13595463 [kJ/mol]
      Exch11(S^2)                   0.32223609 [mEh]       0.20220620 [kcal/mol]       0.84603074 [kJ/mol]
      Exch12(S^2)                   2.39967740 [mEh]       1.50582030 [kcal/mol]       6.30035215 [kJ/mol]

    Induction                     -11.06522019 [mEh]      -6.94353050 [kcal/mol]     -29.05173161 [kJ/mol]
      Ind20,r                     -11.21529765 [mEh]      -7.03770553 [kcal/mol]     -29.44575994 [kJ/mol]
      Ind22                        -2.03694897 [mEh]      -1.27820478 [kcal/mol]      -5.34800880 [kJ/mol]
      Exch-Ind20,r                  3.04994884 [mEh]       1.91387179 [kcal/mol]       8.00763957 [kJ/mol]
      Exch-Ind22                    0.55393895 [mEh]       0.34760194 [kcal/mol]       1.45436650 [kJ/mol]
      delta HF,r (2)               -1.41686135 [mEh]      -0.88909392 [kcal/mol]      -3.71996895 [kJ/mol]

    Dispersion                     -5.98777166 [mEh]      -3.75738345 [kcal/mol]     -15.72089234 [kJ/mol]
      Disp20                       -5.46265276 [mEh]      -3.42786636 [kcal/mol]     -14.34219286 [kJ/mol]
      Disp21                        0.21648143 [mEh]       0.13584415 [kcal/mol]       0.56837190 [kJ/mol]
      Disp22 (SDQ)                 -0.45682295 [mEh]      -0.28666073 [kcal/mol]      -1.19938849 [kJ/mol]
      Disp22 (T)                   -1.08702328 [mEh]      -0.68211741 [kcal/mol]      -2.85397923 [kJ/mol]
      Est. Disp22 (T)              -1.25631555 [mEh]      -0.78834991 [kcal/mol]      -3.29845602 [kJ/mol]
      Exch-Disp20                   0.97153817 [mEh]       0.60964941 [kcal/mol]       2.55077313 [kJ/mol]

  Total HF                        -42.77135720 [mEh]     -26.83943185 [kcal/mol]    -112.29618287 [kJ/mol]
  Total SAPT0                     -47.26247179 [mEh]     -29.65764881 [kcal/mol]    -124.08760260 [kJ/mol]
  Total SAPT2                     -44.28211674 [mEh]     -27.78744777 [kcal/mol]    -116.26268148 [kJ/mol]
  Total SAPT2+                    -45.77877381 [mEh]     -28.72661427 [kcal/mol]    -120.19215408 [kJ/mol]

  Special recipe for scaled SAPT0 (see Manual):
    Electrostatics sSAPT0         -41.25779046 [mEh]     -25.88965438 [kcal/mol]    -108.32231394 [kJ/mol]
    Exchange sSAPT0                 8.06864342 [mEh]       5.06315019 [kcal/mol]      21.18422039 [kJ/mol]
    Induction sSAPT0               -9.56126796 [mEh]      -5.99978622 [kcal/mol]     -25.10310556 [kJ/mol]
    Dispersion sSAPT0              -4.48444361 [mEh]      -2.81403085 [kcal/mol]     -11.77390507 [kJ/mol]
  Total sSAPT0                    -47.23485861 [mEh]     -29.64032127 [kcal/mol]    -124.01510418 [kJ/mol]
  --------------------------------------------------------------------------------------------------------

*** Psi4 exiting successfully. Buy a developer a beer!
