                               Psi4 1.4a2.dev224

  ==> Input File <==

--------------------------------------------------------------------------
#Generated by lconvert.py for sapt job

memory 50 GB

molecule  {
-1 1
  P      -0.324380    0.173620    0.466200
  O       1.132440    0.276700    0.848300
  O      -0.774750    1.666930   -0.078510
  O      -1.386930   -0.326050    1.384520
  O      -0.384290   -0.717120   -0.923950
  H       0.055480    2.144970   -0.158170
  H       0.535130   -0.783740   -1.196640
--
0 1
  O       0.588030   -0.983870    4.151390
  H       1.095340   -0.635540    3.403470
  H      -0.282750   -0.976450    3.728360
units angstrom
no_reorient
symmetry c1
}

set {
scf_type DF
basis aug-cc-pvtz
freeze_core True
guess SAD
}
energy('sapt2+')
--------------------------------------------------------------------------

  //              Dimer HF             //
    Molecular point group: c1
  Charge       = -1
  Multiplicity = 1
  Basis Set: AUG-CC-PVTZ
    Blend: AUG-CC-PVTZ
  Basis Set: (AUG-CC-PVTZ AUX)
    Blend: AUG-CC-PVTZ-JKFIT
  @DF-RHF Final Energy:  -717.75363178415603
    Total Energy =                       -717.7536317841560276
  //            Monomer A HF           //
    Molecular point group: c1
  Multiplicity = 1
  Basis Set: AUG-CC-PVTZ
    Blend: AUG-CC-PVTZ
  Basis Set: (AUG-CC-PVTZ AUX)
    Blend: AUG-CC-PVTZ-JKFIT
  @DF-RHF Final Energy:  -641.67548670769202
    Total Energy =                       -641.6754867076920164
  //            Monomer B HF           //
    Molecular point group: c1

    Geometry (in Angstrom), charge = 0, multiplicity = 1:

       Center              X                  Y                   Z               Mass
    ------------   -----------------  -----------------  -----------------  -----------------
      Gh(P)          -0.134460360687     0.140650626621    -0.458684000171    30.973761998420
      Gh(O)           1.322359639313     0.243730626621    -0.076584000171    15.994914619570
      Gh(O)          -0.584830360687     1.633960626621    -1.003394000171    15.994914619570
      Gh(O)          -1.197010360687    -0.359019373379     0.459635999829    15.994914619570
      Gh(O)          -0.194370360687    -0.750089373379    -1.848834000171    15.994914619570
      Gh(H)           0.245399639313     2.112000626621    -1.083054000171     1.007825032230
      Gh(H)           0.725049639313    -0.816709373379    -2.121524000171     1.007825032230
         O            0.777949639313    -1.016839373379     3.226505999829    15.994914619570
         H            1.285259639313    -0.668509373379     2.478585999829     1.007825032230
         H           -0.092830360687    -1.009419373379     2.803475999829     1.007825032230

  Charge       = 0
  Multiplicity = 1
  Basis Set: AUG-CC-PVTZ
    Blend: AUG-CC-PVTZ
  Basis Set: (AUG-CC-PVTZ AUX)
    Blend: AUG-CC-PVTZ-JKFIT

    Orbital Energies [Eh]
    ---------------------

    Doubly Occupied:

       1A    -20.572115     2A     -1.353043     3A     -0.697863
       4A     -0.596568     5A     -0.511470

  @DF-RHF Final Energy:   -76.05803234424813

   => Energetics <=

    Nuclear Repulsion Energy =              9.1070601871572592
    One-Electron Energy =                -122.8680649003430432
    Two-Electron Energy =                  37.7029723689376439
    Total Energy =                        -76.0580323442481472

  Dipole Moment: [D]
     X:    -0.5993      Y:     0.5863      Z:    -1.9300     Total:     2.1042

    SAPT Results
  --------------------------------------------------------------------------------------------------------
    Electrostatics                -18.76180205 [mEh]     -11.77320853 [kcal/mol]     -49.25910449 [kJ/mol]
      Elst10,r                    -19.96464808 [mEh]     -12.52800581 [kcal/mol]     -52.41717630 [kJ/mol]
      Elst12,r                      1.20284603 [mEh]       0.75479728 [kcal/mol]       3.15807181 [kJ/mol]

    Exchange                        3.53005418 [mEh]       2.21514244 [kcal/mol]       9.26815597 [kJ/mol]
      Exch10                        2.66287948 [mEh]       1.67098210 [kcal/mol]       6.99138911 [kJ/mol]
      Exch10(S^2)                   2.66003361 [mEh]       1.66919629 [kcal/mol]       6.98391728 [kJ/mol]
      Exch11(S^2)                   0.08189636 [mEh]       0.05139074 [kcal/mol]       0.21501888 [kJ/mol]
      Exch12(S^2)                   0.78527833 [mEh]       0.49276959 [kcal/mol]       2.06174798 [kJ/mol]

    Induction                      -3.20778971 [mEh]      -2.01291844 [kcal/mol]      -8.42205074 [kJ/mol]
      Ind20,r                      -3.17600808 [mEh]      -1.99297516 [kcal/mol]      -8.33860807 [kJ/mol]
      Ind22                        -0.51317890 [mEh]      -0.32202462 [kcal/mol]      -1.34735103 [kJ/mol]
      Exch-Ind20,r                  0.72009482 [mEh]       0.45186632 [kcal/mol]       1.89060868 [kJ/mol]
      Exch-Ind22                    0.11635281 [mEh]       0.07301249 [kcal/mol]       0.30548426 [kJ/mol]
      delta HF,r (2)               -0.35505036 [mEh]      -0.22279746 [kcal/mol]      -0.93218459 [kJ/mol]

    Dispersion                     -3.15741568 [mEh]      -1.98130825 [kcal/mol]      -8.28979372 [kJ/mol]
      Disp20                       -2.79812677 [mEh]      -1.75585106 [kcal/mol]      -7.34648082 [kJ/mol]
      Disp21                        0.12412303 [mEh]       0.07788838 [kcal/mol]       0.32588498 [kJ/mol]
      Disp22 (SDQ)                 -0.17257323 [mEh]      -0.10829134 [kcal/mol]      -0.45309095 [kJ/mol]
      Disp22 (T)                   -0.55297506 [mEh]      -0.34699709 [kcal/mol]      -1.45183581 [kJ/mol]
      Est. Disp22 (T)              -0.62496332 [mEh]      -0.39217040 [kcal/mol]      -1.64084096 [kJ/mol]
      Exch-Disp20                   0.31412460 [mEh]       0.19711617 [kcal/mol]       0.82473404 [kJ/mol]

  Total HF                        -20.11273222 [mEh]     -12.62093001 [kcal/mol]     -52.80597116 [kJ/mol]
  Total SAPT0                     -22.59673438 [mEh]     -14.17966490 [kcal/mol]     -59.32771794 [kJ/mol]
  Total SAPT2                     -20.92353974 [mEh]     -13.12971941 [kcal/mol]     -54.93474603 [kJ/mol]
  Total SAPT2+                    -21.59695326 [mEh]     -13.55229277 [kcal/mol]     -56.70279296 [kJ/mol]

  Special recipe for scaled SAPT0 (see Manual):
    Electrostatics sSAPT0         -19.96464808 [mEh]     -12.52800581 [kcal/mol]     -52.41717630 [kJ/mol]
    Exchange sSAPT0                 2.66287948 [mEh]       1.67098210 [kcal/mol]       6.99138911 [kJ/mol]
    Induction sSAPT0               -2.80864994 [mEh]      -1.76245445 [kcal/mol]      -7.37410940 [kJ/mol]
    Dispersion sSAPT0              -2.48299287 [mEh]      -1.55810155 [kcal/mol]      -6.51909689 [kJ/mol]
  Total sSAPT0                    -22.59341141 [mEh]     -14.17757970 [kcal/mol]     -59.31899348 [kJ/mol]
  --------------------------------------------------------------------------------------------------------

*** Psi4 exiting successfully. Buy a developer a beer!
