                               Psi4 1.4a2.dev224

  ==> Input File <==

--------------------------------------------------------------------------
#Generated by lconvert.py for sapt job

memory 50 GB

molecule  {
-1 1
  P      -0.324380    0.173620    0.466200
  O       1.132440    0.276700    0.848300
  O      -0.774750    1.666930   -0.078510
  O      -1.386930   -0.326050    1.384520
  O      -0.384290   -0.717120   -0.923950
  H       0.055480    2.144970   -0.158170
  H       0.535130   -0.783740   -1.196640
--
0 1
  O       0.579470   -1.194380    4.741040
  H       1.086780   -0.846050    3.993120
  H      -0.291320   -1.186970    4.318010
units angstrom
no_reorient
symmetry c1
}

set {
scf_type DF
basis aug-cc-pvtz
freeze_core True
guess SAD
}
energy('sapt2+')
--------------------------------------------------------------------------

  //              Dimer HF             //
    Molecular point group: c1
  Charge       = -1
  Multiplicity = 1
  Basis Set: AUG-CC-PVTZ
    Blend: AUG-CC-PVTZ
  Basis Set: (AUG-CC-PVTZ AUX)
    Blend: AUG-CC-PVTZ-JKFIT
  @DF-RHF Final Energy:  -717.74838246771469
    Total Energy =                       -717.7483824677146913
  //            Monomer A HF           //
    Molecular point group: c1
  Multiplicity = 1
  Basis Set: AUG-CC-PVTZ
    Blend: AUG-CC-PVTZ
  Basis Set: (AUG-CC-PVTZ AUX)
    Blend: AUG-CC-PVTZ-JKFIT
  @DF-RHF Final Energy:  -641.67541585699337
    Total Energy =                       -641.6754158569933679
  //            Monomer B HF           //
    Molecular point group: c1

    Geometry (in Angstrom), charge = 0, multiplicity = 1:

       Center              X                  Y                   Z               Mass
    ------------   -----------------  -----------------  -----------------  -----------------
      Gh(P)          -0.133119423123     0.173625283764    -0.551047569120    30.973761998420
      Gh(O)           1.323700576877     0.276705283764    -0.168947569120    15.994914619570
      Gh(O)          -0.583489423123     1.666935283764    -1.095757569120    15.994914619570
      Gh(O)          -1.195669423123    -0.326044716236     0.367272430880    15.994914619570
      Gh(O)          -0.193029423123    -0.717114716236    -1.941197569120    15.994914619570
      Gh(H)           0.246740576877     2.144975283764    -1.175417569120     1.007825032230
      Gh(H)           0.726390576877    -0.783734716236    -2.213887569120     1.007825032230
         O            0.770730576877    -1.194374716236     3.723792430880    15.994914619570
         H            1.278040576877    -0.846044716236     2.975872430880     1.007825032230
         H           -0.100059423123    -1.186964716236     3.300762430880     1.007825032230

  Charge       = 0
  Multiplicity = 1
  Basis Set: AUG-CC-PVTZ
    Blend: AUG-CC-PVTZ
  Basis Set: (AUG-CC-PVTZ AUX)
    Blend: AUG-CC-PVTZ-JKFIT

    Orbital Energies [Eh]
    ---------------------

    Doubly Occupied:

       1A    -20.572124     2A     -1.353056     3A     -0.697879
       4A     -0.596575     5A     -0.511481

  @DF-RHF Final Energy:   -76.05801632667624

   => Energetics <=

    Nuclear Repulsion Energy =              9.1070169623457176
    One-Electron Energy =                -122.8678326972310231
    Two-Electron Energy =                  37.7027994082090814
    Total Energy =                        -76.0580163266762384

  Dipole Moment: [D]
     X:    -0.5994      Y:     0.5864      Z:    -1.9303     Total:     2.1046

    SAPT Results
  --------------------------------------------------------------------------------------------------------
    Electrostatics                -12.82469996 [mEh]      -8.04762073 [kcal/mol]     -33.67124512 [kJ/mol]
      Elst10,r                    -13.90695876 [mEh]      -8.72674837 [kcal/mol]     -36.51271520 [kJ/mol]
      Elst12,r                      1.08225880 [mEh]       0.67912765 [kcal/mol]       2.84147009 [kJ/mol]

    Exchange                        0.52458236 [mEh]       0.32918040 [kcal/mol]       1.37729080 [kJ/mol]
      Exch10                        0.36399724 [mEh]       0.22841172 [kcal/mol]       0.95567462 [kJ/mol]
      Exch10(S^2)                   0.36392041 [mEh]       0.22836351 [kcal/mol]       0.95547292 [kJ/mol]
      Exch11(S^2)                   0.01301590 [mEh]       0.00816760 [kcal/mol]       0.03417324 [kJ/mol]
      Exch12(S^2)                   0.14756922 [mEh]       0.09260109 [kcal/mol]       0.38744294 [kJ/mol]

    Induction                      -1.57209532 [mEh]      -0.98650471 [kcal/mol]      -4.12753569 [kJ/mol]
      Ind20,r                      -1.44715816 [mEh]      -0.90810545 [kcal/mol]      -3.79951322 [kJ/mol]
      Ind22                        -0.17701317 [mEh]      -0.11107744 [kcal/mol]      -0.46474801 [kJ/mol]
      Exch-Ind20,r                  0.10007026 [mEh]       0.06279504 [kcal/mol]       0.26273443 [kJ/mol]
      Exch-Ind22                    0.01224037 [mEh]       0.00768095 [kcal/mol]       0.03213709 [kJ/mol]
      delta HF,r (2)               -0.06023463 [mEh]      -0.03779780 [kcal/mol]      -0.15814599 [kJ/mol]

    Dispersion                     -1.15998097 [mEh]      -0.72789905 [kcal/mol]      -3.04552962 [kJ/mol]
      Disp20                       -0.97324692 [mEh]      -0.61072166 [kcal/mol]      -2.55525942 [kJ/mol]
      Disp21                        0.05318930 [mEh]       0.03337679 [kcal/mol]       0.13964848 [kJ/mol]
      Disp22 (SDQ)                 -0.06604673 [mEh]      -0.04144495 [kcal/mol]      -0.17340567 [kJ/mol]
      Disp22 (T)                   -0.20613543 [mEh]      -0.12935193 [kcal/mol]      -0.54120849 [kJ/mol]
      Est. Disp22 (T)              -0.22681635 [mEh]      -0.14232941 [kcal/mol]      -0.59550625 [kJ/mol]
      Exch-Disp20                   0.05293973 [mEh]       0.03322018 [kcal/mol]       0.13899324 [kJ/mol]

  Total HF                        -14.95028405 [mEh]      -9.38144487 [kcal/mol]     -39.25196535 [kJ/mol]
  Total SAPT0                     -15.87059123 [mEh]      -9.95894635 [kcal/mol]     -41.66823154 [kJ/mol]
  Total SAPT2                     -14.79252011 [mEh]      -9.28244651 [kcal/mol]     -38.83775619 [kJ/mol]
  Total SAPT2+                    -15.03219389 [mEh]      -9.43284408 [kcal/mol]     -39.46701963 [kJ/mol]

  Special recipe for scaled SAPT0 (see Manual):
    Electrostatics sSAPT0         -13.90695876 [mEh]      -8.72674837 [kcal/mol]     -36.51271520 [kJ/mol]
    Exchange sSAPT0                 0.36399724 [mEh]       0.22841172 [kcal/mol]       0.95567462 [kJ/mol]
    Induction sSAPT0               -1.40725913 [mEh]      -0.88306844 [kcal/mol]      -3.69475834 [kJ/mol]
    Dispersion sSAPT0              -0.92027365 [mEh]      -0.57748043 [kcal/mol]      -2.41617814 [kJ/mol]
  Total sSAPT0                    -15.87049431 [mEh]      -9.95888553 [kcal/mol]     -41.66797706 [kJ/mol]
  --------------------------------------------------------------------------------------------------------

*** Psi4 exiting successfully. Buy a developer a beer!
