                               Psi4 1.4a2.dev224

  ==> Input File <==

--------------------------------------------------------------------------
#Generated by lconvert.py for sapt job

memory 50 GB

molecule  {
-1 1
  P      -0.324380    0.173620    0.466200
  O       1.132440    0.276700    0.848300
  O      -0.774750    1.666930   -0.078510
  O      -1.386930   -0.326050    1.384520
  O      -0.384290   -0.717120   -0.923950
  H       0.055480    2.144970   -0.158170
  H       0.535130   -0.783740   -1.196640
--
0 1
  O       0.570900   -1.404900    5.330690
  H       1.078220   -1.056570    4.582770
  H      -0.299880   -1.397480    4.907660
units angstrom
no_reorient
symmetry c1
}

set {
scf_type DF
basis aug-cc-pvtz
freeze_core True
guess SAD
}
energy('sapt2+')
--------------------------------------------------------------------------

  //              Dimer HF             //
    Molecular point group: c1
  Charge       = -1
  Multiplicity = 1
  Basis Set: AUG-CC-PVTZ
    Blend: AUG-CC-PVTZ
  Basis Set: (AUG-CC-PVTZ AUX)
    Blend: AUG-CC-PVTZ-JKFIT
  @DF-RHF Final Energy:  -717.74465356385917
    Total Energy =                       -717.7446535638591740
  //            Monomer A HF           //
    Molecular point group: c1
  Multiplicity = 1
  Basis Set: AUG-CC-PVTZ
    Blend: AUG-CC-PVTZ
  Basis Set: (AUG-CC-PVTZ AUX)
    Blend: AUG-CC-PVTZ-JKFIT
  @DF-RHF Final Energy:  -641.67539090848243
    Total Energy =                       -641.6753909084824272
  //            Monomer B HF           //
    Molecular point group: c1

    Geometry (in Angstrom), charge = 0, multiplicity = 1:

       Center              X                  Y                   Z               Mass
    ------------   -----------------  -----------------  -----------------  -----------------
      Gh(P)          -0.131777182104     0.206601332014    -0.643411138070    30.973761998420
      Gh(O)           1.325042817896     0.309681332014    -0.261311138070    15.994914619570
      Gh(O)          -0.582147182104     1.699911332014    -1.188121138070    15.994914619570
      Gh(O)          -1.194327182104    -0.293068667986     0.274908861930    15.994914619570
      Gh(O)          -0.191687182104    -0.684138667986    -2.033561138070    15.994914619570
      Gh(H)           0.248082817896     2.177951332014    -1.267781138070     1.007825032230
      Gh(H)           0.727732817896    -0.750758667986    -2.306251138070     1.007825032230
         O            0.763502817896    -1.371918667986     4.221078861930    15.994914619570
         H            1.270822817896    -1.023588667986     3.473158861930     1.007825032230
         H           -0.107277182104    -1.364498667986     3.798048861930     1.007825032230

  Charge       = 0
  Multiplicity = 1
  Basis Set: AUG-CC-PVTZ
    Blend: AUG-CC-PVTZ
  Basis Set: (AUG-CC-PVTZ AUX)
    Blend: AUG-CC-PVTZ-JKFIT

    Orbital Energies [Eh]
    ---------------------

    Doubly Occupied:

       1A    -20.572126     2A     -1.353062     3A     -0.697886
       4A     -0.596578     5A     -0.511487

  @DF-RHF Final Energy:   -76.05800970552183

   => Energetics <=

    Nuclear Repulsion Energy =              9.1070341885111326
    One-Electron Energy =                -122.8678059331540169
    Two-Electron Energy =                  37.7027620391210547
    Total Energy =                        -76.0580097055218260

  Dipole Moment: [D]
     X:    -0.5994      Y:     0.5865      Z:    -1.9305     Total:     2.1048

    SAPT Results
  --------------------------------------------------------------------------------------------------------
    Electrostatics                 -9.63352796 [mEh]      -6.04513006 [kcal/mol]     -25.29282419 [kJ/mol]
      Elst10,r                    -10.50305192 [mEh]      -6.59076458 [kcal/mol]     -27.57575901 [kJ/mol]
      Elst12,r                      0.86952395 [mEh]       0.54563452 [kcal/mol]       2.28293483 [kJ/mol]

    Exchange                        0.07797399 [mEh]       0.04892942 [kcal/mol]       0.20472068 [kJ/mol]
      Exch10                        0.04989604 [mEh]       0.03131024 [kcal/mol]       0.13100203 [kJ/mol]
      Exch10(S^2)                   0.04989401 [mEh]       0.03130897 [kcal/mol]       0.13099671 [kJ/mol]
      Exch11(S^2)                   0.00201854 [mEh]       0.00126665 [kcal/mol]       0.00529967 [kJ/mol]
      Exch12(S^2)                   0.02605941 [mEh]       0.01635253 [kcal/mol]       0.06841898 [kJ/mol]

    Induction                      -0.88260163 [mEh]      -0.55384088 [kcal/mol]      -2.31727025 [kJ/mol]
      Ind20,r                      -0.80314159 [mEh]      -0.50397895 [kcal/mol]      -2.10864795 [kJ/mol]
      Ind22                        -0.08441317 [mEh]      -0.05297007 [kcal/mol]      -0.22162676 [kJ/mol]
      Exch-Ind20,r                  0.01527558 [mEh]       0.00958557 [kcal/mol]       0.04010604 [kJ/mol]
      Exch-Ind22                    0.00160552 [mEh]       0.00100748 [kcal/mol]       0.00421529 [kJ/mol]
      delta HF,r (2)               -0.01192797 [mEh]      -0.00748491 [kcal/mol]      -0.03131687 [kJ/mol]

    Dispersion                     -0.46411903 [mEh]      -0.29123909 [kcal/mol]      -1.21854435 [kJ/mol]
      Disp20                       -0.38423801 [mEh]      -0.24111299 [kcal/mol]      -1.00881675 [kJ/mol]
      Disp21                        0.02813856 [mEh]       0.01765721 [kcal/mol]       0.07387777 [kJ/mol]
      Disp22 (SDQ)                 -0.02563419 [mEh]      -0.01608570 [kcal/mol]      -0.06730255 [kJ/mol]
      Disp22 (T)                   -0.08522016 [mEh]      -0.05347646 [kcal/mol]      -0.22374549 [kJ/mol]
      Est. Disp22 (T)              -0.09087148 [mEh]      -0.05702271 [kcal/mol]      -0.23858304 [kJ/mol]
      Exch-Disp20                   0.00848609 [mEh]       0.00532510 [kcal/mol]       0.02228022 [kJ/mol]

  Total HF                        -11.25294985 [mEh]      -7.06133264 [kcal/mol]     -29.54461577 [kJ/mol]
  Total SAPT0                     -11.62870177 [mEh]      -7.29712053 [kcal/mol]     -30.53115230 [kJ/mol]
  Total SAPT2                     -10.81390752 [mEh]      -6.78582942 [kcal/mol]     -28.39191028 [kJ/mol]
  Total SAPT2+                    -10.90227463 [mEh]      -6.84128062 [kcal/mol]     -28.62391811 [kJ/mol]

  Special recipe for scaled SAPT0 (see Manual):
    Electrostatics sSAPT0         -10.50305192 [mEh]      -6.59076458 [kcal/mol]     -27.57575901 [kJ/mol]
    Exchange sSAPT0                 0.04989604 [mEh]       0.03131024 [kcal/mol]       0.13100203 [kJ/mol]
    Induction sSAPT0               -0.79979211 [mEh]      -0.50187713 [kcal/mol]      -2.09985391 [kJ/mol]
    Dispersion sSAPT0              -0.37575089 [mEh]      -0.23578724 [kcal/mol]      -0.98653382 [kJ/mol]
  Total sSAPT0                    -11.62869888 [mEh]      -7.29711872 [kcal/mol]     -30.53114471 [kJ/mol]
  --------------------------------------------------------------------------------------------------------

*** Psi4 exiting successfully. Buy a developer a beer!
