                               Psi4 1.4a2.dev224

  ==> Input File <==

--------------------------------------------------------------------------
#Generated by lconvert.py for sapt job

memory 50 GB

molecule  {
0 1
  P      -0.330460    0.164630    0.264150
  O       1.207780    0.080240    0.653430
  O      -0.409690    1.498140   -0.614190
  O      -1.256720    0.048350    1.408030
  O      -0.596940   -0.936710   -0.851180
  H      -0.273360    2.285120   -0.076060
  H       0.051390   -0.902000   -1.562750
  H       1.287550   -0.331860    1.545250
--
0 1
  O       0.200930   -1.639700    4.454660
  H       0.360810   -1.324510    5.345650
  H      -0.702510   -1.354240    4.237270
units angstrom
no_reorient
symmetry c1
}

set {
scf_type DF
basis aug-cc-pvtz
freeze_core True
guess SAD
}
energy('sapt2+')
--------------------------------------------------------------------------

  //              Dimer HF             //
    Molecular point group: c1
  Charge       = 0
  Multiplicity = 1
  Basis Set: AUG-CC-PVTZ
    Blend: AUG-CC-PVTZ
  Basis Set: (AUG-CC-PVTZ AUX)
    Blend: AUG-CC-PVTZ-JKFIT
  @DF-RHF Final Energy:  -718.28441567486152
    Total Energy =                       -718.2844156748615205
  //            Monomer A HF           //
    Molecular point group: c1
  Multiplicity = 1
  Basis Set: AUG-CC-PVTZ
    Blend: AUG-CC-PVTZ
  Basis Set: (AUG-CC-PVTZ AUX)
    Blend: AUG-CC-PVTZ-JKFIT
  @DF-RHF Final Energy:  -642.21924337131645
    Total Energy =                       -642.2192433713164519
  //            Monomer B HF           //
    Molecular point group: c1

    Geometry (in Angstrom), charge = 0, multiplicity = 1:

       Center              X                  Y                   Z               Mass
    ------------   -----------------  -----------------  -----------------  -----------------
      Gh(P)          -0.130645823668     0.265770806203    -0.585352597745    30.973761998420
      Gh(O)           1.407594176332     0.181380806203    -0.196072597745    15.994914619570
      Gh(O)          -0.209875823668     1.599280806203    -1.463692597745    15.994914619570
      Gh(O)          -1.056905823668     0.149490806203     0.558527402255    15.994914619570
      Gh(O)          -0.397125823668    -0.835569193797    -1.700682597745    15.994914619570
      Gh(H)          -0.073545823668     2.386260806203    -0.925562597745     1.007825032230
      Gh(H)           0.251204176332    -0.800859193797    -2.412252597745     1.007825032230
      Gh(H)           1.487364176332    -0.230719193797     0.695747402255     1.007825032230
         O            0.400744176332    -1.538559193797     3.605157402255    15.994914619570
         H            0.560624176332    -1.223369193797     4.496147402255     1.007825032230
         H           -0.502695823668    -1.253099193797     3.387767402255     1.007825032230

  Charge       = 0
  Multiplicity = 1
  Basis Set: AUG-CC-PVTZ
    Blend: AUG-CC-PVTZ
  Basis Set: (AUG-CC-PVTZ AUX)
    Blend: AUG-CC-PVTZ-JKFIT

    Orbital Energies [Eh]
    ---------------------

    Doubly Occupied:

       1A    -20.568185     2A     -1.348849     3A     -0.715223
       4A     -0.581558     5A     -0.509422

  @DF-RHF Final Energy:   -76.05990918863276

   => Energetics <=

    Nuclear Repulsion Energy =              9.1160459014972783
    One-Electron Energy =                -122.9054336874131366
    Two-Electron Energy =                  37.7294785972830908
    Total Energy =                        -76.0599091886327727

  Dipole Moment: [D]
     X:    -1.2517      Y:     1.0137      Z:     1.1419     Total:     1.9745

    SAPT Results
  --------------------------------------------------------------------------------------------------------
    Electrostatics                 -4.65537155 [mEh]      -2.92128975 [kcal/mol]     -12.22267632 [kJ/mol]
      Elst10,r                     -5.19891591 [mEh]      -3.26236899 [kcal/mol]     -13.64975183 [kJ/mol]
      Elst12,r                      0.54354436 [mEh]       0.34107923 [kcal/mol]       1.42707552 [kJ/mol]

    Exchange                        0.38470239 [mEh]       0.24140439 [kcal/mol]       1.01003598 [kJ/mol]
      Exch10                        0.28346412 [mEh]       0.17787642 [kcal/mol]       0.74423493 [kJ/mol]
      Exch10(S^2)                   0.28341085 [mEh]       0.17784299 [kcal/mol]       0.74409509 [kJ/mol]
      Exch11(S^2)                  -0.00293962 [mEh]      -0.00184464 [kcal/mol]      -0.00771797 [kJ/mol]
      Exch12(S^2)                   0.10417789 [mEh]       0.06537261 [kcal/mol]       0.27351901 [kJ/mol]

    Induction                      -0.36945033 [mEh]      -0.23183358 [kcal/mol]      -0.96999170 [kJ/mol]
      Ind20,r                      -0.37688309 [mEh]      -0.23649771 [kcal/mol]      -0.98950642 [kJ/mol]
      Ind22                        -0.02583623 [mEh]      -0.01621248 [kcal/mol]      -0.06783301 [kJ/mol]
      Exch-Ind20,r                  0.05906468 [mEh]       0.03706365 [kcal/mol]       0.15507430 [kJ/mol]
      Exch-Ind22                    0.00404902 [mEh]       0.00254080 [kcal/mol]       0.01063071 [kJ/mol]
      delta HF,r (2)               -0.02984471 [mEh]      -0.01872784 [kcal/mol]      -0.07835728 [kJ/mol]

    Dispersion                     -0.92540876 [mEh]      -0.58070276 [kcal/mol]      -2.42966037 [kJ/mol]
      Disp20                       -0.80957989 [mEh]      -0.50801905 [kcal/mol]      -2.12555171 [kJ/mol]
      Disp21                        0.04863490 [mEh]       0.03051886 [kcal/mol]       0.12769092 [kJ/mol]
      Disp22 (SDQ)                 -0.02780130 [mEh]      -0.01744558 [kcal/mol]      -0.07299230 [kJ/mol]
      Disp22 (T)                   -0.15552691 [mEh]      -0.09759461 [kcal/mol]      -0.40833585 [kJ/mol]
      Est. Disp22 (T)              -0.17051411 [mEh]      -0.10699922 [kcal/mol]      -0.44768473 [kJ/mol]
      Exch-Disp20                   0.03385163 [mEh]       0.02124222 [kcal/mol]       0.08887745 [kJ/mol]

  Total HF                         -5.26311491 [mEh]      -3.30265447 [kcal/mol]     -13.81830630 [kJ/mol]
  Total SAPT0                      -6.03884317 [mEh]      -3.78943130 [kcal/mol]     -15.85498056 [kJ/mol]
  Total SAPT2                      -5.41584774 [mEh]      -3.39849577 [kcal/mol]     -14.21930629 [kJ/mol]
  Total SAPT2+                     -5.56552825 [mEh]      -3.49242170 [kcal/mol]     -14.61229240 [kJ/mol]

  Special recipe for scaled SAPT0 (see Manual):
    Electrostatics sSAPT0          -5.19891591 [mEh]      -3.26236899 [kcal/mol]     -13.64975183 [kJ/mol]
    Exchange sSAPT0                 0.28346412 [mEh]       0.17787642 [kcal/mol]       0.74423493 [kJ/mol]
    Induction sSAPT0               -0.34762981 [mEh]      -0.21814100 [kcal/mol]      -0.91270195 [kJ/mol]
    Dispersion sSAPT0              -0.77570917 [mEh]      -0.48676485 [kcal/mol]      -2.03662414 [kJ/mol]
  Total sSAPT0                     -6.03879077 [mEh]      -3.78939842 [kcal/mol]     -15.85484299 [kJ/mol]
  --------------------------------------------------------------------------------------------------------

*** Psi4 exiting successfully. Buy a developer a beer!
