                               Psi4 1.4a2.dev224

  ==> Input File <==

--------------------------------------------------------------------------
#Generated by lconvert.py for sapt job

memory 50 GB

molecule  {
0 1
  P      -0.330460    0.164630    0.264150
  O       1.207780    0.080240    0.653430
  O      -0.409690    1.498140   -0.614190
  O      -1.256720    0.048350    1.408030
  O      -0.596940   -0.936710   -0.851180
  H      -0.273360    2.285120   -0.076060
  H       0.051390   -0.902000   -1.562750
  H       1.287550   -0.331860    1.545250
--
0 1
  O       0.372500   -1.433200    3.995280
  H       0.532380   -1.118010    4.886270
  H      -0.530940   -1.147730    3.777880
units angstrom
no_reorient
symmetry c1
}

set {
scf_type DF
basis aug-cc-pvtz
freeze_core True
guess SAD
}
energy('sapt2+')
--------------------------------------------------------------------------

  //              Dimer HF             //
    Molecular point group: c1
  Charge       = 0
  Multiplicity = 1
  Basis Set: AUG-CC-PVTZ
    Blend: AUG-CC-PVTZ
  Basis Set: (AUG-CC-PVTZ AUX)
    Blend: AUG-CC-PVTZ-JKFIT
  @DF-RHF Final Energy:  -718.28797564557829
    Total Energy =                       -718.2879756455782854
  //            Monomer A HF           //
    Molecular point group: c1
  Multiplicity = 1
  Basis Set: AUG-CC-PVTZ
    Blend: AUG-CC-PVTZ
  Basis Set: (AUG-CC-PVTZ AUX)
    Blend: AUG-CC-PVTZ-JKFIT
  @DF-RHF Final Energy:  -642.21928013660249
    Total Energy =                       -642.2192801366024923
  //            Monomer B HF           //
    Molecular point group: c1

    Geometry (in Angstrom), charge = 0, multiplicity = 1:

       Center              X                  Y                   Z               Mass
    ------------   -----------------  -----------------  -----------------  -----------------
      Gh(P)          -0.157287260389     0.233705342598    -0.514019858288    30.973761998420
      Gh(O)           1.380952739611     0.149315342598    -0.124739858288    15.994914619570
      Gh(O)          -0.236517260389     1.567215342598    -1.392359858288    15.994914619570
      Gh(O)          -1.083547260389     0.117425342598     0.629860141712    15.994914619570
      Gh(O)          -0.423767260389    -0.867634657402    -1.629349858288    15.994914619570
      Gh(H)          -0.100187260389     2.354195342598    -0.854229858288     1.007825032230
      Gh(H)           0.224562739611    -0.832924657402    -2.340919858288     1.007825032230
      Gh(H)           1.460722739611    -0.262784657402     0.767080141712     1.007825032230
         O            0.545672739611    -1.364124657402     3.217110141712    15.994914619570
         H            0.705552739611    -1.048934657402     4.108100141712     1.007825032230
         H           -0.357767260389    -1.078654657402     2.999710141712     1.007825032230

  Charge       = 0
  Multiplicity = 1
  Basis Set: AUG-CC-PVTZ
    Blend: AUG-CC-PVTZ
  Basis Set: (AUG-CC-PVTZ AUX)
    Blend: AUG-CC-PVTZ-JKFIT

    Orbital Energies [Eh]
    ---------------------

    Doubly Occupied:

       1A    -20.568122     2A     -1.348808     3A     -0.715183
       4A     -0.581520     5A     -0.509416

  @DF-RHF Final Energy:   -76.05993922835114

   => Energetics <=

    Nuclear Repulsion Energy =              9.1160211520317347
    One-Electron Energy =                -122.9058177774388838
    Two-Electron Energy =                  37.7298573970560085
    Total Energy =                        -76.0599392283511406

  Dipole Moment: [D]
     X:    -1.2516      Y:     1.0129      Z:     1.1413     Total:     1.9736

    SAPT Results
  --------------------------------------------------------------------------------------------------------
    Electrostatics                 -8.38778882 [mEh]      -5.26341695 [kcal/mol]     -22.02213651 [kJ/mol]
      Elst10,r                     -9.18874400 [mEh]      -5.76602391 [kcal/mol]     -24.12504405 [kJ/mol]
      Elst12,r                      0.80095518 [mEh]       0.50260696 [kcal/mol]       2.10290754 [kJ/mol]

    Exchange                        1.85193775 [mEh]       1.16210849 [kcal/mol]       4.86226190 [kJ/mol]
      Exch10                        1.44318959 [mEh]       0.90561514 [kcal/mol]       3.78909374 [kJ/mol]
      Exch10(S^2)                   1.44215429 [mEh]       0.90496548 [kcal/mol]       3.78637556 [kJ/mol]
      Exch11(S^2)                   0.00277926 [mEh]       0.00174401 [kcal/mol]       0.00729693 [kJ/mol]
      Exch12(S^2)                   0.40596891 [mEh]       0.25474934 [kcal/mol]       1.06587124 [kJ/mol]

    Induction                      -1.10761131 [mEh]      -0.69503659 [kcal/mol]      -2.90803309 [kJ/mol]
      Ind20,r                      -1.18997237 [mEh]      -0.74671894 [kcal/mol]      -3.12427203 [kJ/mol]
      Ind22                        -0.13674958 [mEh]      -0.08581166 [kcal/mol]      -0.35903597 [kJ/mol]
      Exch-Ind20,r                  0.34689416 [mEh]       0.21767937 [kcal/mol]       0.91077050 [kJ/mol]
      Exch-Ind22                    0.03986448 [mEh]       0.02501534 [kcal/mol]       0.10466418 [kJ/mol]
      delta HF,r (2)               -0.16764800 [mEh]      -0.10520071 [kcal/mol]      -0.44015977 [kJ/mol]

    Dispersion                     -2.05339939 [mEh]      -1.28852757 [kcal/mol]      -5.39119935 [kJ/mol]
      Disp20                       -1.85024664 [mEh]      -1.16104729 [kcal/mol]      -4.85782188 [kJ/mol]
      Disp21                        0.08985296 [mEh]       0.05638358 [kcal/mol]       0.23590891 [kJ/mol]
      Disp22 (SDQ)                 -0.06120976 [mEh]      -0.03840970 [kcal/mol]      -0.16070620 [kJ/mol]
      Disp22 (T)                   -0.33838230 [mEh]      -0.21233810 [kcal/mol]      -0.88842261 [kJ/mol]
      Est. Disp22 (T)              -0.37957365 [mEh]      -0.23818606 [kcal/mol]      -0.99657048 [kJ/mol]
      Exch-Disp20                   0.14777770 [mEh]       0.09273191 [kcal/mol]       0.38799030 [kJ/mol]

  Total HF                         -8.75628062 [mEh]      -5.49464905 [kcal/mol]     -22.98961161 [kJ/mol]
  Total SAPT0                     -10.45874956 [mEh]      -6.56296443 [kcal/mol]     -27.45944319 [kJ/mol]
  Total SAPT2                      -9.34593131 [mEh]      -5.86466044 [kcal/mol]     -24.53773927 [kJ/mol]
  Total SAPT2+                     -9.69686176 [mEh]      -6.08487262 [kcal/mol]     -25.45910704 [kJ/mol]

  Special recipe for scaled SAPT0 (see Manual):
    Electrostatics sSAPT0          -9.18874400 [mEh]      -5.76602391 [kcal/mol]     -24.12504405 [kJ/mol]
    Exchange sSAPT0                 1.44318959 [mEh]       0.90561514 [kcal/mol]       3.78909374 [kJ/mol]
    Induction sSAPT0               -1.00997858 [mEh]      -0.63377113 [kcal/mol]      -2.65169841 [kJ/mol]
    Dispersion sSAPT0              -1.70215045 [mEh]      -1.06811553 [kcal/mol]      -4.46899538 [kJ/mol]
  Total sSAPT0                    -10.45768345 [mEh]      -6.56229544 [kcal/mol]     -27.45664411 [kJ/mol]
  --------------------------------------------------------------------------------------------------------

*** Psi4 exiting successfully. Buy a developer a beer!
