                               Psi4 1.4a2.dev224

  ==> Input File <==

--------------------------------------------------------------------------
#Generated by lconvert.py for sapt job

memory 50 GB

molecule  {
0 1
  P      -0.330460    0.164630    0.264150
  O       1.207780    0.080240    0.653430
  O      -0.409690    1.498140   -0.614190
  O      -1.256720    0.048350    1.408030
  O      -0.596940   -0.936710   -0.851180
  H      -0.273360    2.285120   -0.076060
  H       0.051390   -0.902000   -1.562750
  H       1.287550   -0.331860    1.545250
--
0 1
  O       0.544070   -1.226700    3.535900
  H       0.703950   -0.911510    4.426890
  H      -0.359370   -0.941230    3.318500
units angstrom
no_reorient
symmetry c1
}

set {
scf_type DF
basis aug-cc-pvtz
freeze_core True
guess SAD
}
energy('sapt2+')
--------------------------------------------------------------------------

  //              Dimer HF             //
    Molecular point group: c1
  Charge       = 0
  Multiplicity = 1
  Basis Set: AUG-CC-PVTZ
    Blend: AUG-CC-PVTZ
  Basis Set: (AUG-CC-PVTZ AUX)
    Blend: AUG-CC-PVTZ-JKFIT
  @DF-RHF Final Energy:  -718.29319824165202
    Total Energy =                       -718.2931982416520214
  //            Monomer A HF           //
    Molecular point group: c1
  Multiplicity = 1
  Basis Set: AUG-CC-PVTZ
    Blend: AUG-CC-PVTZ
  Basis Set: (AUG-CC-PVTZ AUX)
    Blend: AUG-CC-PVTZ-JKFIT
  @DF-RHF Final Energy:  -642.21933417775153
    Total Energy =                       -642.2193341777515343
  //            Monomer B HF           //
    Molecular point group: c1

    Geometry (in Angstrom), charge = 0, multiplicity = 1:

       Center              X                  Y                   Z               Mass
    ------------   -----------------  -----------------  -----------------  -----------------
      Gh(P)          -0.183928697110     0.201639965884    -0.442687205722    30.973761998420
      Gh(O)           1.354311302890     0.117249965884    -0.053407205722    15.994914619570
      Gh(O)          -0.263158697110     1.535149965884    -1.321027205722    15.994914619570
      Gh(O)          -1.110188697110     0.085359965884     0.701192794278    15.994914619570
      Gh(O)          -0.450408697110    -0.899700034116    -1.558017205722    15.994914619570
      Gh(H)          -0.126828697110     2.322129965884    -0.782897205722     1.007825032230
      Gh(H)           0.197921302890    -0.864990034116    -2.269587205722     1.007825032230
      Gh(H)           1.434081302890    -0.294850034116     0.838412794278     1.007825032230
         O            0.690601302890    -1.189690034116     2.829062794278    15.994914619570
         H            0.850481302890    -0.874500034116     3.720052794278     1.007825032230
         H           -0.212838697110    -0.904220034116     2.611662794278     1.007825032230

  Charge       = 0
  Multiplicity = 1
  Basis Set: AUG-CC-PVTZ
    Blend: AUG-CC-PVTZ
  Basis Set: (AUG-CC-PVTZ AUX)
    Blend: AUG-CC-PVTZ-JKFIT

    Orbital Energies [Eh]
    ---------------------

    Doubly Occupied:

       1A    -20.568040     2A     -1.348761     3A     -0.715139
       4A     -0.581480     5A     -0.509403

  @DF-RHF Final Energy:   -76.05997338928972

   => Energetics <=

    Nuclear Repulsion Energy =              9.1160211520317311
    One-Electron Energy =                -122.9063394896988939
    Two-Electron Energy =                  37.7303449483774500
    Total Energy =                        -76.0599733892897092

  Dipole Moment: [D]
     X:    -1.2510      Y:     1.0124      Z:     1.1405     Total:     1.9725

    SAPT Results
  --------------------------------------------------------------------------------------------------------
    Electrostatics                -16.45979661 [mEh]     -10.32867831 [kcal/mol]     -43.21519005 [kJ/mol]
      Elst10,r                    -17.50667554 [mEh]     -10.98560475 [kcal/mol]     -45.96377029 [kJ/mol]
      Elst12,r                      1.04687892 [mEh]       0.65692644 [kcal/mol]       2.74858024 [kJ/mol]

    Exchange                        8.60481387 [mEh]       5.39960222 [kcal/mol]      22.59193570 [kJ/mol]
      Exch10                        7.07856845 [mEh]       4.44186877 [kcal/mol]      18.58477892 [kJ/mol]
      Exch10(S^2)                   7.06072128 [mEh]       4.43066950 [kcal/mol]      18.53792118 [kJ/mol]
      Exch11(S^2)                   0.07076090 [mEh]       0.04440313 [kcal/mol]       0.18578271 [kJ/mol]
      Exch12(S^2)                   1.45548451 [mEh]       0.91333032 [kcal/mol]       3.82137407 [kJ/mol]

    Induction                      -3.81324839 [mEh]      -2.39284949 [kcal/mol]     -10.01168227 [kJ/mol]
      Ind20,r                      -4.41426741 [mEh]      -2.76999462 [kcal/mol]     -11.58965748 [kJ/mol]
      Ind22                        -0.61583534 [mEh]      -0.38644251 [kcal/mol]      -1.61687547 [kJ/mol]
      Exch-Ind20,r                  1.90060995 [mEh]       1.19265075 [kcal/mol]       4.99005074 [kJ/mol]
      Exch-Ind22                    0.26515448 [mEh]       0.16638695 [kcal/mol]       0.69616299 [kJ/mol]
      delta HF,r (2)               -0.94891007 [mEh]      -0.59545006 [kcal/mol]      -2.49136305 [kJ/mol]

    Dispersion                     -4.73546138 [mEh]      -2.97154688 [kcal/mol]     -12.43295215 [kJ/mol]
      Disp20                       -4.52609450 [mEh]      -2.84016718 [kcal/mol]     -11.88325948 [kJ/mol]
      Disp21                        0.20356540 [mEh]       0.12773922 [kcal/mol]       0.53446088 [kJ/mol]
      Disp22 (SDQ)                 -0.12913967 [mEh]      -0.08103637 [kcal/mol]      -0.33905616 [kJ/mol]
      Disp22 (T)                   -0.77521321 [mEh]      -0.48645363 [kcal/mol]      -2.03532199 [kJ/mol]
      Est. Disp22 (T)              -0.88368462 [mEh]      -0.55452047 [kcal/mol]      -2.32011364 [kJ/mol]
      Exch-Disp20                   0.59989201 [mEh]       0.37643792 [kcal/mol]       1.57501625 [kJ/mol]

  Total HF                        -13.89067461 [mEh]      -8.71652992 [kcal/mol]     -36.46996117 [kJ/mol]
  Total SAPT0                     -17.81687711 [mEh]     -11.18025918 [kcal/mol]     -46.77820440 [kJ/mol]
  Total SAPT2                     -15.59443363 [mEh]      -9.78565484 [kcal/mol]     -40.94317986 [kJ/mol]
  Total SAPT2+                    -16.40369252 [mEh]     -10.29347246 [kcal/mol]     -43.06788878 [kJ/mol]

  Special recipe for scaled SAPT0 (see Manual):
    Electrostatics sSAPT0         -17.50667554 [mEh]     -10.98560475 [kcal/mol]     -45.96377029 [kJ/mol]
    Exchange sSAPT0                 7.07856845 [mEh]       4.44186877 [kcal/mol]      18.58477892 [kJ/mol]
    Induction sSAPT0               -3.44811872 [mEh]      -2.16372717 [kcal/mol]      -9.05303447 [kJ/mol]
    Dispersion sSAPT0              -3.92164200 [mEh]      -2.46086751 [kcal/mol]     -10.29626965 [kJ/mol]
  Total sSAPT0                    -17.79786781 [mEh]     -11.16833066 [kcal/mol]     -46.72829549 [kJ/mol]
  --------------------------------------------------------------------------------------------------------

*** Psi4 exiting successfully. Buy a developer a beer!
