                               Psi4 1.4a2.dev224

  ==> Input File <==

--------------------------------------------------------------------------
#Generated by lconvert.py for sapt job

memory 50 GB

molecule  {
0 1
  P      -0.034540   -0.218720    1.198360
  O       0.993980   -0.661090    0.063490
  O       0.696450    1.080590    1.710840
  O      -0.383500   -1.249650    2.200630
  O      -1.353240    0.254370    0.433090
  H       0.467830    1.271440    2.645310
  H      -1.166890    0.933210   -0.225370
  H       0.849670   -1.579150   -0.192290
--
0 1
  P       0.205980    0.311850    6.857130
  O       1.349410    0.660480    7.915200
  O       0.295740    1.512230    5.746070
  O      -1.147660    0.220460    7.431110
  O       0.879050   -0.874560    6.096420
  H      -0.445880    2.110730    5.896870
  H       0.494820   -1.060090    5.198770
  H       0.940350    0.826810    8.771440
units angstrom
no_reorient
symmetry c1
}

set {
scf_type DF
basis aug-cc-pvtz
freeze_core True
guess SAD
}
energy('sapt2+')
--------------------------------------------------------------------------

  //              Dimer HF             //
    Molecular point group: c1
  Charge       = 0
  Multiplicity = 1
  Basis Set: AUG-CC-PVTZ
    Blend: AUG-CC-PVTZ
  Basis Set: (AUG-CC-PVTZ AUX)
    Blend: AUG-CC-PVTZ-JKFIT
  @DF-RHF Final Energy: -1284.44323289958720
    Total Energy =                      -1284.4432328995872012
  //            Monomer A HF           //
    Molecular point group: c1
  Multiplicity = 1
  Basis Set: AUG-CC-PVTZ
    Blend: AUG-CC-PVTZ
  Basis Set: (AUG-CC-PVTZ AUX)
    Blend: AUG-CC-PVTZ-JKFIT
  @DF-RHF Final Energy:  -642.21931939950593
    Total Energy =                       -642.2193193995059346
  //            Monomer B HF           //
    Molecular point group: c1

    Geometry (in Angstrom), charge = 0, multiplicity = 1:

       Center              X                  Y                   Z               Mass
    ------------   -----------------  -----------------  -----------------  -----------------
      Gh(P)          -0.176082945525    -0.323273258961    -2.767704476039    30.973761998420
      Gh(O)           0.852437054475    -0.765643258961    -3.902574476039    15.994914619570
      Gh(O)           0.554907054475     0.976036741039    -2.255224476039    15.994914619570
      Gh(O)          -0.525042945525    -1.354203258961    -1.765434476039    15.994914619570
      Gh(O)          -1.494782945525     0.149816741039    -3.532974476039    15.994914619570
      Gh(H)           0.326287054475     1.166886741039    -1.320754476039     1.007825032230
      Gh(H)          -1.308432945525     0.828656741039    -4.191434476039     1.007825032230
      Gh(H)           0.708127054475    -1.683703258961    -4.158354476039     1.007825032230
         P            0.064437054475     0.207296741039     2.891065523961    30.973761998420
         O            1.207867054475     0.555926741039     3.949135523961    15.994914619570
         O            0.154197054475     1.407676741039     1.780005523961    15.994914619570
         O           -1.289202945525     0.115906741039     3.465045523961    15.994914619570
         O            0.737507054475    -0.979113258961     2.130355523961    15.994914619570
         H           -0.587422945525     2.006176741039     1.930805523961     1.007825032230
         H            0.353277054475    -1.164643258961     1.232705523961     1.007825032230
         H            0.798807054475     0.722256741039     4.805375523961     1.007825032230

  Charge       = 0
  Multiplicity = 1
  Basis Set: AUG-CC-PVTZ
    Blend: AUG-CC-PVTZ
  Basis Set: (AUG-CC-PVTZ AUX)
    Blend: AUG-CC-PVTZ-JKFIT

    Orbital Energies [Eh]
    ---------------------

    Doubly Occupied:

       1A    -80.119490     2A    -20.627330     3A    -20.612841
       4A    -20.604967     5A    -20.525153     6A     -7.636236
       7A     -5.534694     8A     -5.534358     9A     -5.533301
      10A     -1.470181    11A     -1.401811    12A     -1.386776
      13A     -1.308160    14A     -0.876941    15A     -0.766180
      16A     -0.738697    17A     -0.691088    18A     -0.651626
      19A     -0.635418    20A     -0.598706    21A     -0.591876
      22A     -0.554395    23A     -0.538694    24A     -0.481511
      25A     -0.477291

  @DF-RHF Final Energy:  -642.21751599161746

   => Energetics <=

    Nuclear Repulsion Energy =            279.7258421315293617
    One-Electron Energy =               -1444.0912744251158983
    Two-Electron Energy =                 522.1479163019690759
    Total Energy =                       -642.2175159916174607

  Dipole Moment: [D]
     X:     0.4044      Y:     0.6217      Z:    -1.0441     Total:     1.2807

    SAPT Results
  --------------------------------------------------------------------------------------------------------
    Electrostatics                 -5.43465594 [mEh]      -3.41029809 [kcal/mol]     -14.26868722 [kJ/mol]
      Elst10,r                     -6.02953908 [mEh]      -3.78359289 [kcal/mol]     -15.83055267 [kJ/mol]
      Elst12,r                      0.59488313 [mEh]       0.37329480 [kcal/mol]       1.56186545 [kJ/mol]

    Exchange                        0.34809792 [mEh]       0.21843474 [kcal/mol]       0.91393097 [kJ/mol]
      Exch10                        0.25619649 [mEh]       0.16076572 [kcal/mol]       0.67264379 [kJ/mol]
      Exch10(S^2)                   0.25615986 [mEh]       0.16074274 [kcal/mol]       0.67254761 [kJ/mol]
      Exch11(S^2)                  -0.00130014 [mEh]      -0.00081585 [kcal/mol]      -0.00341352 [kJ/mol]
      Exch12(S^2)                   0.09320157 [mEh]       0.05848487 [kcal/mol]       0.24470069 [kJ/mol]

    Induction                      -0.66565287 [mEh]      -0.41770348 [kcal/mol]      -1.74767136 [kJ/mol]
      Ind20,r                      -0.61240686 [mEh]      -0.38429110 [kcal/mol]      -1.60787398 [kJ/mol]
      Ind22                        -0.04548641 [mEh]      -0.02854315 [kcal/mol]      -0.11942456 [kJ/mol]
      Exch-Ind20,r                  0.05384625 [mEh]       0.03378903 [kcal/mol]       0.14137332 [kJ/mol]
      Exch-Ind22                    0.00399942 [mEh]       0.00250967 [kcal/mol]       0.01050048 [kJ/mol]
      delta HF,r (2)               -0.06560527 [mEh]      -0.04116793 [kcal/mol]      -0.17224662 [kJ/mol]

    Dispersion                     -1.37464576 [mEh]      -0.86260324 [kcal/mol]      -3.60913194 [kJ/mol]
      Disp20                       -1.18887632 [mEh]      -0.74603115 [kcal/mol]      -3.12139434 [kJ/mol]
      Disp21                        0.10446441 [mEh]       0.06555240 [kcal/mol]       0.27427126 [kJ/mol]
      Disp22 (SDQ)                 -0.04494076 [mEh]      -0.02820075 [kcal/mol]      -0.11799196 [kJ/mol]
      Disp22 (T)                   -0.25685759 [mEh]      -0.16118057 [kcal/mol]      -0.67437951 [kJ/mol]
      Est. Disp22 (T)              -0.27170111 [mEh]      -0.17049502 [kcal/mol]      -0.71335117 [kJ/mol]
      Exch-Disp20                   0.02640803 [mEh]       0.01657129 [kcal/mol]       0.06933426 [kJ/mol]

  Total HF                         -6.39750846 [mEh]      -4.01449717 [kcal/mol]     -16.79665616 [kJ/mol]
  Total SAPT0                      -7.55997675 [mEh]      -4.74395704 [kcal/mol]     -19.84871623 [kJ/mol]
  Total SAPT2                      -6.91467918 [mEh]      -4.33902669 [kcal/mol]     -18.15448768 [kJ/mol]
  Total SAPT2+                     -7.12685665 [mEh]      -4.47217006 [kcal/mol]     -18.71155955 [kJ/mol]

  Special recipe for scaled SAPT0 (see Manual):
    Electrostatics sSAPT0          -6.02953908 [mEh]      -3.78359289 [kcal/mol]     -15.83055267 [kJ/mol]
    Exchange sSAPT0                 0.25619649 [mEh]       0.16076572 [kcal/mol]       0.67264379 [kJ/mol]
    Induction sSAPT0               -0.62414277 [mEh]      -0.39165550 [kcal/mol]      -1.63868662 [kJ/mol]
    Dispersion sSAPT0              -1.16245696 [mEh]      -0.72945275 [kcal/mol]      -3.05203033 [kJ/mol]
  Total sSAPT0                     -7.55994232 [mEh]      -4.74393543 [kcal/mol]     -19.84862582 [kJ/mol]
  --------------------------------------------------------------------------------------------------------

*** Psi4 exiting successfully. Buy a developer a beer!
