                               Psi4 1.4a2.dev224

  ==> Input File <==

--------------------------------------------------------------------------
#Generated by lconvert.py for sapt job

memory 50 GB

molecule  {
0 1
  P      -0.034540   -0.218720    1.198360
  O       0.993980   -0.661090    0.063490
  O       0.696450    1.080590    1.710840
  O      -0.383500   -1.249650    2.200630
  O      -1.353240    0.254370    0.433090
  H       0.467830    1.271440    2.645310
  H      -1.166890    0.933210   -0.225370
  H       0.849670   -1.579150   -0.192290
--
0 1
  P       0.067300    0.281920    6.383740
  O       1.210730    0.630550    7.441810
  O       0.157060    1.482300    5.272680
  O      -1.286350    0.190530    6.957720
  O       0.740370   -0.904490    5.623020
  H      -0.584560    2.080800    5.423480
  H       0.356140   -1.090020    4.725380
  H       0.801670    0.796870    8.298050
units angstrom
no_reorient
symmetry c1
}

set {
scf_type DF
basis aug-cc-pvtz
freeze_core True
guess SAD
}
energy('sapt2+')
--------------------------------------------------------------------------

  //              Dimer HF             //
    Molecular point group: c1
  Charge       = 0
  Multiplicity = 1
  Basis Set: AUG-CC-PVTZ
    Blend: AUG-CC-PVTZ
  Basis Set: (AUG-CC-PVTZ AUX)
    Blend: AUG-CC-PVTZ-JKFIT
  @DF-RHF Final Energy: -1284.44813189220804
    Total Energy =                      -1284.4481318922080391
  //            Monomer A HF           //
    Molecular point group: c1
  Multiplicity = 1
  Basis Set: AUG-CC-PVTZ
    Blend: AUG-CC-PVTZ
  Basis Set: (AUG-CC-PVTZ AUX)
    Blend: AUG-CC-PVTZ-JKFIT
  @DF-RHF Final Energy:  -642.21938625294842
    Total Energy =                       -642.2193862529484250
  //            Monomer B HF           //
    Molecular point group: c1

    Geometry (in Angstrom), charge = 0, multiplicity = 1:

       Center              X                  Y                   Z               Mass
    ------------   -----------------  -----------------  -----------------  -----------------
      Gh(P)          -0.106742129265    -0.308308207529    -2.531008659779    30.973761998420
      Gh(O)           0.921777870735    -0.750678207529    -3.665878659779    15.994914619570
      Gh(O)           0.624247870735     0.991001792471    -2.018528659779    15.994914619570
      Gh(O)          -0.455702129265    -1.339238207529    -1.528738659779    15.994914619570
      Gh(O)          -1.425442129265     0.164781792471    -3.296278659779    15.994914619570
      Gh(H)           0.395627870735     1.181851792471    -1.084058659779     1.007825032230
      Gh(H)          -1.239092129265     0.843621792471    -3.954738659779     1.007825032230
      Gh(H)           0.777467870735    -1.668738207529    -3.921658659779     1.007825032230
         P           -0.004902129265     0.192331792471     2.654371340221    30.973761998420
         O            1.138527870735     0.540961792471     3.712441340221    15.994914619570
         O            0.084857870735     1.392711792471     1.543311340221    15.994914619570
         O           -1.358552129265     0.100941792471     3.228351340221    15.994914619570
         O            0.668167870735    -0.994078207529     1.893651340221    15.994914619570
         H           -0.656762129265     1.991211792471     1.694111340221     1.007825032230
         H            0.283937870735    -1.179608207529     0.996011340221     1.007825032230
         H            0.729467870735     0.707281792471     4.568681340221     1.007825032230

  Charge       = 0
  Multiplicity = 1
  Basis Set: AUG-CC-PVTZ
    Blend: AUG-CC-PVTZ
  Basis Set: (AUG-CC-PVTZ AUX)
    Blend: AUG-CC-PVTZ-JKFIT

    Orbital Energies [Eh]
    ---------------------

    Doubly Occupied:

       1A    -80.119500     2A    -20.627318     3A    -20.612837
       4A    -20.604940     5A    -20.525145     6A     -7.636226
       7A     -5.534683     8A     -5.534348     9A     -5.533292
      10A     -1.470168    11A     -1.401803    12A     -1.386762
      13A     -1.308148    14A     -0.876930    15A     -0.766165
      16A     -0.738692    17A     -0.691080    18A     -0.651617
      19A     -0.635409    20A     -0.598699    21A     -0.591871
      22A     -0.554387    23A     -0.538694    24A     -0.481504
      25A     -0.477284

  @DF-RHF Final Energy:  -642.21758133107005

   => Energetics <=

    Nuclear Repulsion Energy =            279.7253135899598533
    One-Electron Energy =               -1444.0907800665861487
    Two-Electron Energy =                 522.1478851455563017
    Total Energy =                       -642.2175813310700505

  Dipole Moment: [D]
     X:     0.4047      Y:     0.6216      Z:    -1.0441     Total:     1.2807

    SAPT Results
  --------------------------------------------------------------------------------------------------------
    Electrostatics                 -9.90149552 [mEh]      -6.21328224 [kcal/mol]     -25.99637290 [kJ/mol]
      Elst10,r                    -10.88052344 [mEh]      -6.82763154 [kcal/mol]     -28.56681036 [kJ/mol]
      Elst12,r                      0.97902792 [mEh]       0.61434930 [kcal/mol]       2.57043745 [kJ/mol]

    Exchange                        1.91835760 [mEh]       1.20378757 [kcal/mol]       5.03664718 [kJ/mol]
      Exch10                        1.50324042 [mEh]       0.94329760 [kcal/mol]       3.94675717 [kJ/mol]
      Exch10(S^2)                   1.50224172 [mEh]       0.94267091 [kcal/mol]       3.94413510 [kJ/mol]
      Exch11(S^2)                   0.00098787 [mEh]       0.00061990 [kcal/mol]       0.00259365 [kJ/mol]
      Exch12(S^2)                   0.41412931 [mEh]       0.25987007 [kcal/mol]       1.08729636 [kJ/mol]

    Induction                      -1.93180893 [mEh]      -1.21222840 [kcal/mol]      -5.07196364 [kJ/mol]
      Ind20,r                      -1.79636283 [mEh]      -1.12723469 [kcal/mol]      -4.71634996 [kJ/mol]
      Ind22                        -0.17866107 [mEh]      -0.11211151 [kcal/mol]      -0.46907458 [kJ/mol]
      Exch-Ind20,r                  0.34062228 [mEh]       0.21374371 [kcal/mol]       0.89430366 [kJ/mol]
      Exch-Ind22                    0.03387731 [mEh]       0.02125833 [kcal/mol]       0.08894487 [kJ/mol]
      delta HF,r (2)               -0.33128461 [mEh]      -0.20788423 [kcal/mol]      -0.86978763 [kJ/mol]

    Dispersion                     -2.90913505 [mEh]      -1.82550980 [kcal/mol]      -7.63793301 [kJ/mol]
      Disp20                       -2.56445939 [mEh]      -1.60922257 [kcal/mol]      -6.73298721 [kJ/mol]
      Disp21                        0.18307377 [mEh]       0.11488052 [kcal/mol]       0.48066011 [kJ/mol]
      Disp22 (SDQ)                 -0.09429990 [mEh]      -0.05917408 [kcal/mol]      -0.24758435 [kJ/mol]
      Disp22 (T)                   -0.52495715 [mEh]      -0.32941559 [kcal/mol]      -1.37827481 [kJ/mol]
      Est. Disp22 (T)              -0.56868145 [mEh]      -0.35685300 [kcal/mol]      -1.49307295 [kJ/mol]
      Exch-Disp20                   0.13523193 [mEh]       0.08485932 [kcal/mol]       0.35505139 [kJ/mol]

  Total HF                        -11.16430819 [mEh]      -7.00570916 [kcal/mol]     -29.31188711 [kJ/mol]
  Total SAPT0                     -13.59353565 [mEh]      -8.53007240 [kcal/mol]     -35.68982293 [kJ/mol]
  Total SAPT2                     -12.34417431 [mEh]      -7.74608632 [kcal/mol]     -32.40962518 [kJ/mol]
  Total SAPT2+                    -12.82408189 [mEh]      -8.04723288 [kcal/mol]     -33.66962237 [kJ/mol]

  Special recipe for scaled SAPT0 (see Manual):
    Electrostatics sSAPT0         -10.88052344 [mEh]      -6.82763154 [kcal/mol]     -28.56681036 [kJ/mol]
    Exchange sSAPT0                 1.50324042 [mEh]       0.94329760 [kcal/mol]       3.94675717 [kJ/mol]
    Induction sSAPT0               -1.78634538 [mEh]      -1.12094865 [kcal/mol]      -4.69004914 [kJ/mol]
    Dispersion sSAPT0              -2.42895757 [mEh]      -1.52419389 [kcal/mol]      -6.37722723 [kJ/mol]
  Total sSAPT0                    -13.59258597 [mEh]      -8.52947647 [kcal/mol]     -35.68732956 [kJ/mol]
  --------------------------------------------------------------------------------------------------------

*** Psi4 exiting successfully. Buy a developer a beer!
