                               Psi4 1.4a2.dev224

  ==> Input File <==

--------------------------------------------------------------------------
#Generated by lconvert.py for sapt job

memory 50 GB

molecule  {
0 1
  P      -0.034540   -0.218720    1.198360
  O       0.993980   -0.661090    0.063490
  O       0.696450    1.080590    1.710840
  O      -0.383500   -1.249650    2.200630
  O      -1.353240    0.254370    0.433090
  H       0.467830    1.271440    2.645310
  H      -1.166890    0.933210   -0.225370
  H       0.849670   -1.579150   -0.192290
--
0 1
  P      -0.071390    0.251990    5.910350
  O       1.072050    0.600620    6.968420
  O       0.018380    1.452370    4.799290
  O      -1.425030    0.160600    6.484330
  O       0.601690   -0.934420    5.149630
  H      -0.723240    2.050870    4.950090
  H       0.217460   -1.119950    4.251990
  H       0.662990    0.766940    7.824660
units angstrom
no_reorient
symmetry c1
}

set {
scf_type DF
basis aug-cc-pvtz
freeze_core True
guess SAD
}
energy('sapt2+')
--------------------------------------------------------------------------

  //              Dimer HF             //
    Molecular point group: c1
  Charge       = 0
  Multiplicity = 1
  Basis Set: AUG-CC-PVTZ
    Blend: AUG-CC-PVTZ
  Basis Set: (AUG-CC-PVTZ AUX)
    Blend: AUG-CC-PVTZ-JKFIT
  @DF-RHF Final Energy: -1284.45579805439183
    Total Energy =                      -1284.4557980543918347
  //            Monomer A HF           //
    Molecular point group: c1
  Multiplicity = 1
  Basis Set: AUG-CC-PVTZ
    Blend: AUG-CC-PVTZ
  Basis Set: (AUG-CC-PVTZ AUX)
    Blend: AUG-CC-PVTZ-JKFIT
  @DF-RHF Final Energy:  -642.21947284734415
    Total Energy =                       -642.2194728473441501
  //            Monomer B HF           //
    Molecular point group: c1

    Geometry (in Angstrom), charge = 0, multiplicity = 1:

       Center              X                  Y                   Z               Mass
    ------------   -----------------  -----------------  -----------------  -----------------
      Gh(P)          -0.037400548599    -0.293343207529    -2.294313659779    30.973761998420
      Gh(O)           0.991119451401    -0.735713207529    -3.429183659779    15.994914619570
      Gh(O)           0.693589451401     1.005966792471    -1.781833659779    15.994914619570
      Gh(O)          -0.386360548599    -1.324273207529    -1.292043659779    15.994914619570
      Gh(O)          -1.356100548599     0.179746792471    -3.059583659779    15.994914619570
      Gh(H)           0.464969451401     1.196816792471    -0.847363659779     1.007825032230
      Gh(H)          -1.169750548599     0.858586792471    -3.718043659779     1.007825032230
      Gh(H)           0.846809451401    -1.653773207529    -3.684963659779     1.007825032230
         P           -0.074250548599     0.177366792471     2.417676340221    30.973761998420
         O            1.069189451401     0.525996792471     3.475746340221    15.994914619570
         O            0.015519451401     1.377746792471     1.306616340221    15.994914619570
         O           -1.427890548599     0.085976792471     2.991656340221    15.994914619570
         O            0.598829451401    -1.009043207529     1.656956340221    15.994914619570
         H           -0.726100548599     1.976246792471     1.457416340221     1.007825032230
         H            0.214599451401    -1.194573207529     0.759316340221     1.007825032230
         H            0.660129451401     0.692316792471     4.331986340221     1.007825032230

  Charge       = 0
  Multiplicity = 1
  Basis Set: AUG-CC-PVTZ
    Blend: AUG-CC-PVTZ
  Basis Set: (AUG-CC-PVTZ AUX)
    Blend: AUG-CC-PVTZ-JKFIT

    Orbital Energies [Eh]
    ---------------------

    Doubly Occupied:

       1A    -80.119533     2A    -20.627291     3A    -20.612824
       4A    -20.604910     5A    -20.525136     6A     -7.636215
       7A     -5.534671     8A     -5.534338     9A     -5.533283
      10A     -1.470148    11A     -1.401786    12A     -1.386744
      13A     -1.308144    14A     -0.876911    15A     -0.766147
      16A     -0.738677    17A     -0.691070    18A     -0.651602
      19A     -0.635398    20A     -0.598690    21A     -0.591862
      22A     -0.554381    23A     -0.538687    24A     -0.481502
      25A     -0.477282

  @DF-RHF Final Energy:  -642.21766934295454

   => Energetics <=

    Nuclear Repulsion Energy =            279.7252757021649927
    One-Electron Energy =               -1444.0914220708018547
    Two-Electron Energy =                 522.1484770256823822
    Total Energy =                       -642.2176693429545367

  Dipole Moment: [D]
     X:     0.4047      Y:     0.6216      Z:    -1.0440     Total:     1.2807

    SAPT Results
  --------------------------------------------------------------------------------------------------------
    Electrostatics                -19.69776930 [mEh]     -12.36053685 [kcal/mol]     -51.71648618 [kJ/mol]
      Elst10,r                    -21.27622734 [mEh]     -13.35103422 [kcal/mol]     -55.86072719 [kJ/mol]
      Elst12,r                      1.57845804 [mEh]       0.99049737 [kcal/mol]       4.14424101 [kJ/mol]

    Exchange                       10.27905771 [mEh]       6.45020609 [kcal/mol]      26.98766230 [kJ/mol]
      Exch10                        8.56834845 [mEh]       5.37671983 [kcal/mol]      22.49619577 [kJ/mol]
      Exch10(S^2)                   8.54222829 [mEh]       5.36032918 [kcal/mol]      22.42761728 [kJ/mol]
      Exch11(S^2)                   0.04959465 [mEh]       0.03112111 [kcal/mol]       0.13021073 [kJ/mol]
      Exch12(S^2)                   1.66111461 [mEh]       1.04236515 [kcal/mol]       4.36125580 [kJ/mol]

    Induction                      -6.44791210 [mEh]      -4.04612593 [kcal/mol]     -16.92899089 [kJ/mol]
      Ind20,r                      -6.36637466 [mEh]      -3.99496041 [kcal/mol]     -16.71491436 [kJ/mol]
      Ind22                        -0.75998742 [mEh]      -0.47689931 [kcal/mol]      -1.99534670 [kJ/mol]
      Exch-Ind20,r                  2.17851334 [mEh]       1.36703776 [kcal/mol]       5.71968599 [kJ/mol]
      Exch-Ind22                    0.26006053 [mEh]       0.16319044 [kcal/mol]       0.68278881 [kJ/mol]
      delta HF,r (2)               -1.76012389 [mEh]      -1.10449442 [kcal/mol]      -4.62120463 [kJ/mol]

    Dispersion                     -6.59921514 [mEh]      -4.14107002 [kcal/mol]     -17.32623696 [kJ/mol]
      Disp20                       -6.16486112 [mEh]      -3.86850876 [kcal/mol]     -16.18584063 [kJ/mol]
      Disp21                        0.40363558 [mEh]       0.25328515 [kcal/mol]       1.05974508 [kJ/mol]
      Disp22 (SDQ)                 -0.20026853 [mEh]      -0.12567040 [kcal/mol]      -0.52580494 [kJ/mol]
      Disp22 (T)                   -1.15538529 [mEh]      -0.72501521 [kcal/mol]      -3.03346366 [kJ/mol]
      Est. Disp22 (T)              -1.29345150 [mEh]      -0.81165307 [kcal/mol]      -3.39595646 [kJ/mol]
      Exch-Disp20                   0.65573042 [mEh]       0.41147705 [kcal/mol]       1.72161999 [kJ/mol]

  Total HF                        -18.65586409 [mEh]     -11.70673146 [kcal/mol]     -48.98096443 [kJ/mol]
  Total SAPT0                     -24.16499479 [mEh]     -15.16376316 [kcal/mol]     -63.44518507 [kJ/mol]
  Total SAPT2                     -21.37575439 [mEh]     -13.41348839 [kcal/mol]     -56.12203542 [kJ/mol]
  Total SAPT2+                    -22.46583884 [mEh]     -14.09752671 [kcal/mol]     -58.98405174 [kJ/mol]

  Special recipe for scaled SAPT0 (see Manual):
    Electrostatics sSAPT0         -21.27622734 [mEh]     -13.35103422 [kcal/mol]     -55.86072719 [kJ/mol]
    Exchange sSAPT0                 8.56834845 [mEh]       5.37671983 [kcal/mol]      22.49619577 [kJ/mol]
    Induction sSAPT0               -5.92793986 [mEh]      -3.71983842 [kcal/mol]     -15.56380396 [kJ/mol]
    Dispersion sSAPT0              -5.50309706 [mEh]      -3.45324554 [kcal/mol]     -14.44837935 [kJ/mol]
  Total sSAPT0                    -24.13891581 [mEh]     -15.14739836 [kcal/mol]     -63.37671474 [kJ/mol]
  --------------------------------------------------------------------------------------------------------

*** Psi4 exiting successfully. Buy a developer a beer!
