                               Psi4 1.4a2.dev224

  ==> Input File <==

--------------------------------------------------------------------------
#Generated by lconvert.py for sapt job

memory 50 GB

molecule  {
0 1
  F      -0.104450    0.931590   -0.417500
  C      -0.688390   -0.272700   -0.040760
  H       0.091660   -0.948230    0.296400
  H      -1.393720   -0.079640    0.761890
  H      -1.204950   -0.690900   -0.899420
--
0 1
  O       3.199700   -0.083030    0.322110
  H       4.019840    0.405120    0.235600
  H       2.527950    0.535510    0.020410
units angstrom
no_reorient
symmetry c1
}

set {
scf_type DF
basis aug-cc-pvtz
freeze_core True
guess SAD
}
energy('sapt2+')
--------------------------------------------------------------------------

  //              Dimer HF             //
    Molecular point group: c1
  Charge       = 0
  Multiplicity = 1
  Basis Set: AUG-CC-PVTZ
    Blend: AUG-CC-PVTZ
  Basis Set: (AUG-CC-PVTZ AUX)
    Blend: AUG-CC-PVTZ-JKFIT
  @DF-RHF Final Energy:  -215.16084424635181
    Total Energy =                       -215.1608442463518145
  //            Monomer A HF           //
    Molecular point group: c1
  Multiplicity = 1
  Basis Set: AUG-CC-PVTZ
    Blend: AUG-CC-PVTZ
  Basis Set: (AUG-CC-PVTZ AUX)
    Blend: AUG-CC-PVTZ-JKFIT
  @DF-RHF Final Energy:  -139.09731131271090
    Total Energy =                       -139.0973113127109002
  //            Monomer B HF           //
    Molecular point group: c1

    Geometry (in Angstrom), charge = 0, multiplicity = 1:

       Center              X                  Y                   Z               Mass
    ------------   -----------------  -----------------  -----------------  -----------------
      Gh(F)          -0.969415428983     0.694929274992    -0.362712933284    18.998403162730
      Gh(C)          -1.553355428983    -0.509360725008     0.014027066716    12.000000000000
      Gh(H)          -0.773305428983    -1.184890725008     0.351187066716     1.007825032230
      Gh(H)          -2.258685428983    -0.316300725008     0.816677066716     1.007825032230
      Gh(H)          -2.069915428983    -0.927560725008    -0.844632933284     1.007825032230
         O            2.334734571017    -0.319690725008     0.376897066716    15.994914619570
         H            3.154874571017     0.168459274992     0.290387066716     1.007825032230
         H            1.662984571017     0.298849274992     0.075197066716     1.007825032230

  Charge       = 0
  Multiplicity = 1
  Basis Set: AUG-CC-PVTZ
    Blend: AUG-CC-PVTZ
  Basis Set: (AUG-CC-PVTZ AUX)
    Blend: AUG-CC-PVTZ-JKFIT

    Orbital Energies [Eh]
    ---------------------

    Doubly Occupied:

       1A    -20.567920     2A     -1.352547     3A     -0.715320
       4A     -0.585425     5A     -0.510280

  @DF-RHF Final Energy:   -76.06038507894600

   => Energetics <=

    Nuclear Repulsion Energy =              9.1692643486967107
    One-Electron Energy =                -122.9963139329535977
    Two-Electron Energy =                  37.7666645053108923
    Total Energy =                        -76.0603850789459841

  Dipole Moment: [D]
     X:     0.2516      Y:     1.8664      Z:    -0.6545     Total:     1.9938

    SAPT Results
  --------------------------------------------------------------------------------------------------------
    Electrostatics                 -3.01715519 [mEh]      -1.89329347 [kcal/mol]      -7.92153986 [kJ/mol]
      Elst10,r                     -3.33459802 [mEh]      -2.09249185 [kcal/mol]      -8.75498590 [kJ/mol]
      Elst12,r                      0.31744283 [mEh]       0.19919838 [kcal/mol]       0.83344603 [kJ/mol]

    Exchange                        0.59440882 [mEh]       0.37299717 [kcal/mol]       1.56062015 [kJ/mol]
      Exch10                        0.46786550 [mEh]       0.29359004 [kcal/mol]       1.22838071 [kJ/mol]
      Exch10(S^2)                   0.46775750 [mEh]       0.29352226 [kcal/mol]       1.22809713 [kJ/mol]
      Exch11(S^2)                  -0.00243248 [mEh]      -0.00152641 [kcal/mol]      -0.00638649 [kJ/mol]
      Exch12(S^2)                   0.12897580 [mEh]       0.08093354 [kcal/mol]       0.33862592 [kJ/mol]

    Induction                      -0.30410974 [mEh]      -0.19083174 [kcal/mol]      -0.79844001 [kJ/mol]
      Ind20,r                      -0.29882293 [mEh]      -0.18751422 [kcal/mol]      -0.78455949 [kJ/mol]
      Ind22                        -0.02926771 [mEh]      -0.01836577 [kcal/mol]      -0.07684237 [kJ/mol]
      Exch-Ind20,r                  0.06412026 [mEh]       0.04023607 [kcal/mol]       0.16834771 [kJ/mol]
      Exch-Ind22                    0.00628015 [mEh]       0.00394085 [kcal/mol]       0.01648853 [kJ/mol]
      delta HF,r (2)               -0.04641951 [mEh]      -0.02912868 [kcal/mol]      -0.12187440 [kJ/mol]

    Dispersion                     -1.08792858 [mEh]      -0.68268549 [kcal/mol]      -2.85635609 [kJ/mol]
      Disp20                       -0.97397817 [mEh]      -0.61118053 [kcal/mol]      -2.55717932 [kJ/mol]
      Disp21                        0.01470049 [mEh]       0.00922470 [kcal/mol]       0.03859614 [kJ/mol]
      Disp22 (SDQ)                 -0.00479863 [mEh]      -0.00301118 [kcal/mol]      -0.01259879 [kJ/mol]
      Disp22 (T)                   -0.15232220 [mEh]      -0.09558362 [kcal/mol]      -0.39992187 [kJ/mol]
      Est. Disp22 (T)              -0.16711901 [mEh]      -0.10486876 [kcal/mol]      -0.43877091 [kJ/mol]
      Exch-Disp20                   0.04326674 [mEh]       0.02715029 [kcal/mol]       0.11359680 [kJ/mol]

  Total HF                         -3.14785469 [mEh]      -1.97530864 [kcal/mol]      -8.26469136 [kJ/mol]
  Total SAPT0                      -4.07856613 [mEh]      -2.55933888 [kcal/mol]     -10.70827389 [kJ/mol]
  Total SAPT2                      -3.65756754 [mEh]      -2.29515828 [kcal/mol]      -9.60294225 [kJ/mol]
  Total SAPT2+                     -3.81478469 [mEh]      -2.39381353 [kcal/mol]     -10.01571581 [kJ/mol]

  Special recipe for scaled SAPT0 (see Manual):
    Electrostatics sSAPT0          -3.33459802 [mEh]      -2.09249185 [kcal/mol]      -8.75498590 [kJ/mol]
    Exchange sSAPT0                 0.46786550 [mEh]       0.29359004 [kcal/mol]       1.22838071 [kJ/mol]
    Induction sSAPT0               -0.28107775 [mEh]      -0.17637895 [kcal/mol]      -0.73796953 [kJ/mol]
    Dispersion sSAPT0              -0.93068145 [mEh]      -0.58401143 [kcal/mol]      -2.44350381 [kJ/mol]
  Total sSAPT0                     -4.07849172 [mEh]      -2.55929219 [kcal/mol]     -10.70807853 [kJ/mol]
  --------------------------------------------------------------------------------------------------------

*** Psi4 exiting successfully. Buy a developer a beer!
