                               Psi4 1.4a2.dev224

  ==> Input File <==

--------------------------------------------------------------------------
#Generated by lconvert.py for sapt job

memory 50 GB

molecule  {
0 1
  F      -0.104450    0.931590   -0.417500
  C      -0.688390   -0.272700   -0.040760
  H       0.091660   -0.948230    0.296400
  H      -1.393720   -0.079640    0.761890
  H      -1.204950   -0.690900   -0.899420
--
0 1
  O       3.813090   -0.150470    0.415070
  H       4.633230    0.337680    0.328570
  H       3.141340    0.468060    0.113380
units angstrom
no_reorient
symmetry c1
}

set {
scf_type DF
basis aug-cc-pvtz
freeze_core True
guess SAD
}
energy('sapt2+')
--------------------------------------------------------------------------

  //              Dimer HF             //
    Molecular point group: c1
  Charge       = 0
  Multiplicity = 1
  Basis Set: AUG-CC-PVTZ
    Blend: AUG-CC-PVTZ
  Basis Set: (AUG-CC-PVTZ AUX)
    Blend: AUG-CC-PVTZ-JKFIT
  @DF-RHF Final Energy:  -215.15953593671256
    Total Energy =                       -215.1595359367125582
  //            Monomer A HF           //
    Molecular point group: c1
  Multiplicity = 1
  Basis Set: AUG-CC-PVTZ
    Blend: AUG-CC-PVTZ
  Basis Set: (AUG-CC-PVTZ AUX)
    Blend: AUG-CC-PVTZ-JKFIT
  @DF-RHF Final Energy:  -139.09728205543610
    Total Energy =                       -139.0972820554360965
  //            Monomer B HF           //
    Molecular point group: c1

    Geometry (in Angstrom), charge = 0, multiplicity = 1:

       Center              X                  Y                   Z               Mass
    ------------   -----------------  -----------------  -----------------  -----------------
      Gh(F)          -1.181734890584     0.718273221419    -0.394890593121    18.998403162730
      Gh(C)          -1.765674890584    -0.486016778581    -0.018150593121    12.000000000000
      Gh(H)          -0.985624890584    -1.161546778581     0.319009406879     1.007825032230
      Gh(H)          -2.471004890584    -0.292956778581     0.784499406879     1.007825032230
      Gh(H)          -2.282234890584    -0.904216778581    -0.876810593121     1.007825032230
         O            2.735805109416    -0.363786778581     0.437679406879    15.994914619570
         H            3.555945109416     0.124363221419     0.351179406879     1.007825032230
         H            2.064055109416     0.254743221419     0.135989406879     1.007825032230

  Charge       = 0
  Multiplicity = 1
  Basis Set: AUG-CC-PVTZ
    Blend: AUG-CC-PVTZ
  Basis Set: (AUG-CC-PVTZ AUX)
    Blend: AUG-CC-PVTZ-JKFIT

    Orbital Energies [Eh]
    ---------------------

    Doubly Occupied:

       1A    -20.567923     2A     -1.352555     3A     -0.715328
       4A     -0.585429     5A     -0.510285

  @DF-RHF Final Energy:   -76.06037532679385

   => Energetics <=

    Nuclear Repulsion Energy =              9.1693125091783685
    One-Electron Energy =                -122.9963332413398831
    Two-Electron Energy =                  37.7666454053676617
    Total Energy =                        -76.0603753267938600

  Dipole Moment: [D]
     X:     0.2517      Y:     1.8663      Z:    -0.6545     Total:     1.9937

    SAPT Results
  --------------------------------------------------------------------------------------------------------
    Electrostatics                 -1.62510309 [mEh]      -1.01976759 [kcal/mol]      -4.26670758 [kJ/mol]
      Elst10,r                     -1.84234421 [mEh]      -1.15608845 [kcal/mol]      -4.83707406 [kJ/mol]
      Elst12,r                      0.21724112 [mEh]       0.13632086 [kcal/mol]       0.57036649 [kJ/mol]

    Exchange                        0.05059382 [mEh]       0.03174810 [kcal/mol]       0.13283406 [kJ/mol]
      Exch10                        0.03777744 [mEh]       0.02370570 [kcal/mol]       0.09918466 [kJ/mol]
      Exch10(S^2)                   0.03777664 [mEh]       0.02370520 [kcal/mol]       0.09918256 [kJ/mol]
      Exch11(S^2)                  -0.00048635 [mEh]      -0.00030519 [kcal/mol]      -0.00127691 [kJ/mol]
      Exch12(S^2)                   0.01330273 [mEh]       0.00834759 [kcal/mol]       0.03492632 [kJ/mol]

    Induction                      -0.07575413 [mEh]      -0.04753644 [kcal/mol]      -0.19889245 [kJ/mol]
      Ind20,r                      -0.07298270 [mEh]      -0.04579733 [kcal/mol]      -0.19161604 [kJ/mol]
      Ind22                        -0.00185943 [mEh]      -0.00116681 [kcal/mol]      -0.00488194 [kJ/mol]
      Exch-Ind20,r                  0.00365072 [mEh]       0.00229086 [kcal/mol]       0.00958498 [kJ/mol]
      Exch-Ind22                    0.00009301 [mEh]       0.00005837 [kcal/mol]       0.00024420 [kJ/mol]
      delta HF,r (2)               -0.00465574 [mEh]      -0.00292152 [kcal/mol]      -0.01222364 [kJ/mol]

    Dispersion                     -0.37741718 [mEh]      -0.23683286 [kcal/mol]      -0.99090867 [kJ/mol]
      Disp20                       -0.33371636 [mEh]      -0.20941018 [kcal/mol]      -0.87617219 [kJ/mol]
      Disp21                        0.00911924 [mEh]       0.00572241 [kcal/mol]       0.02394256 [kJ/mol]
      Disp22 (SDQ)                  0.00097129 [mEh]       0.00060949 [kcal/mol]       0.00255011 [kJ/mol]
      Disp22 (T)                   -0.05486744 [mEh]      -0.03442984 [kcal/mol]      -0.14405446 [kJ/mol]
      Est. Disp22 (T)              -0.05806891 [mEh]      -0.03643879 [kcal/mol]      -0.15245991 [kJ/mol]
      Exch-Disp20                   0.00427757 [mEh]       0.00268421 [kcal/mol]       0.01123075 [kJ/mol]

  Total HF                         -1.87855448 [mEh]      -1.17881073 [kcal/mol]      -4.93214411 [kJ/mol]
  Total SAPT0                      -2.20799328 [mEh]      -1.38553670 [kcal/mol]      -5.79708555 [kJ/mol]
  Total SAPT2                      -1.97970220 [mEh]      -1.24228188 [kcal/mol]      -5.19770740 [kJ/mol]
  Total SAPT2+                     -2.02768058 [mEh]      -1.27238878 [kcal/mol]      -5.32367464 [kJ/mol]

  Special recipe for scaled SAPT0 (see Manual):
    Electrostatics sSAPT0          -1.84234421 [mEh]      -1.15608845 [kcal/mol]      -4.83707406 [kJ/mol]
    Exchange sSAPT0                 0.03777744 [mEh]       0.02370570 [kcal/mol]       0.09918466 [kJ/mol]
    Induction sSAPT0               -0.07398748 [mEh]      -0.04642784 [kcal/mol]      -0.19425410 [kJ/mol]
    Dispersion sSAPT0              -0.32943852 [mEh]      -0.20672579 [kcal/mol]      -0.86494073 [kJ/mol]
  Total sSAPT0                     -2.20799277 [mEh]      -1.38553638 [kcal/mol]      -5.79708423 [kJ/mol]
  --------------------------------------------------------------------------------------------------------

*** Psi4 exiting successfully. Buy a developer a beer!
