                               Psi4 1.4a2.dev224

  ==> Input File <==

--------------------------------------------------------------------------
#Generated by lconvert.py for sapt job

memory 50 GB

molecule  {
0 1
  F      -0.104450    0.931590   -0.417500
  C      -0.688390   -0.272700   -0.040760
  H       0.091660   -0.948230    0.296400
  H      -1.393720   -0.079640    0.761890
  H      -1.204950   -0.690900   -0.899420
--
0 1
  O       4.426470   -0.217910    0.508040
  H       5.246610    0.270230    0.421540
  H       3.754720    0.400620    0.206350
units angstrom
no_reorient
symmetry c1
}

set {
scf_type DF
basis aug-cc-pvtz
freeze_core True
guess SAD
}
energy('sapt2+')
--------------------------------------------------------------------------

  //              Dimer HF             //
    Molecular point group: c1
  Charge       = 0
  Multiplicity = 1
  Basis Set: AUG-CC-PVTZ
    Blend: AUG-CC-PVTZ
  Basis Set: (AUG-CC-PVTZ AUX)
    Blend: AUG-CC-PVTZ-JKFIT
  @DF-RHF Final Energy:  -215.15879366963654
    Total Energy =                       -215.1587936696365375
  //            Monomer A HF           //
    Molecular point group: c1
  Multiplicity = 1
  Basis Set: AUG-CC-PVTZ
    Blend: AUG-CC-PVTZ
  Basis Set: (AUG-CC-PVTZ AUX)
    Blend: AUG-CC-PVTZ-JKFIT
  @DF-RHF Final Energy:  -139.09726239823343
    Total Energy =                       -139.0972623982334255
  //            Monomer B HF           //
    Molecular point group: c1

    Geometry (in Angstrom), charge = 0, multiplicity = 1:

       Center              X                  Y                   Z               Mass
    ------------   -----------------  -----------------  -----------------  -----------------
      Gh(F)          -1.394050890775     0.741617167846    -0.427071326985    18.998403162730
      Gh(C)          -1.977990890775    -0.462672832154    -0.050331326985    12.000000000000
      Gh(H)          -1.197940890775    -1.138202832154     0.286828673015     1.007825032230
      Gh(H)          -2.683320890775    -0.269612832154     0.752318673015     1.007825032230
      Gh(H)          -2.494550890775    -0.880872832154    -0.908991326985     1.007825032230
         O            3.136869109225    -0.407882832154     0.498468673015    15.994914619570
         H            3.957009109225     0.080257167846     0.411968673015     1.007825032230
         H            2.465119109225     0.210647167846     0.196778673015     1.007825032230

  Charge       = 0
  Multiplicity = 1
  Basis Set: AUG-CC-PVTZ
    Blend: AUG-CC-PVTZ
  Basis Set: (AUG-CC-PVTZ AUX)
    Blend: AUG-CC-PVTZ-JKFIT

    Orbital Energies [Eh]
    ---------------------

    Doubly Occupied:

       1A    -20.567923     2A     -1.352556     3A     -0.715330
       4A     -0.585430     5A     -0.510286

  @DF-RHF Final Energy:   -76.06037087881892

   => Energetics <=

    Nuclear Repulsion Energy =              9.1693357897296437
    One-Electron Energy =                -122.9963590455681555
    Two-Electron Energy =                  37.7666523770195965
    Total Energy =                        -76.0603708788189152

  Dipole Moment: [D]
     X:     0.2516      Y:     1.8662      Z:    -0.6545     Total:     1.9936

    SAPT Results
  --------------------------------------------------------------------------------------------------------
    Electrostatics                 -0.99192939 [mEh]      -0.62244509 [kcal/mol]      -2.60431025 [kJ/mol]
      Elst10,r                     -1.13706558 [mEh]      -0.71351942 [kcal/mol]      -2.98536527 [kJ/mol]
      Elst12,r                      0.14513619 [mEh]       0.09107433 [kcal/mol]       0.38105502 [kJ/mol]

    Exchange                        0.00411909 [mEh]       0.00258477 [kcal/mol]       0.01081466 [kJ/mol]
      Exch10                        0.00294759 [mEh]       0.00184964 [kcal/mol]       0.00773889 [kJ/mol]
      Exch10(S^2)                   0.00294758 [mEh]       0.00184964 [kcal/mol]       0.00773887 [kJ/mol]
      Exch11(S^2)                  -0.00006286 [mEh]      -0.00003944 [kcal/mol]      -0.00016503 [kJ/mol]
      Exch12(S^2)                   0.00123436 [mEh]       0.00077457 [kcal/mol]       0.00324081 [kJ/mol]

    Induction                      -0.02603422 [mEh]      -0.01633672 [kcal/mol]      -0.06835284 [kJ/mol]
      Ind20,r                      -0.02578330 [mEh]      -0.01617927 [kcal/mol]      -0.06769406 [kJ/mol]
      Ind22                         0.00024271 [mEh]       0.00015230 [kcal/mol]       0.00063722 [kJ/mol]
      Exch-Ind20,r                  0.00024827 [mEh]       0.00015579 [kcal/mol]       0.00065183 [kJ/mol]
      Exch-Ind22                   -0.00000234 [mEh]      -0.00000147 [kcal/mol]      -0.00000614 [kJ/mol]
      delta HF,r (2)               -0.00073956 [mEh]      -0.00046408 [kcal/mol]      -0.00194170 [kJ/mol]

    Dispersion                     -0.15273735 [mEh]      -0.09584414 [kcal/mol]      -0.40101186 [kJ/mol]
      Disp20                       -0.13612419 [mEh]      -0.08541922 [kcal/mol]      -0.35739401 [kJ/mol]
      Disp21                        0.00529469 [mEh]       0.00332247 [kcal/mol]       0.01390121 [kJ/mol]
      Disp22 (SDQ)                  0.00133654 [mEh]       0.00083869 [kcal/mol]       0.00350909 [kJ/mol]
      Disp22 (T)                   -0.02271578 [mEh]      -0.01425437 [kcal/mol]      -0.05964027 [kJ/mol]
      Est. Disp22 (T)              -0.02364657 [mEh]      -0.01483845 [kcal/mol]      -0.06208407 [kJ/mol]
      Exch-Disp20                   0.00040217 [mEh]       0.00025237 [kcal/mol]       0.00105590 [kJ/mol]

  Total HF                         -1.16039258 [mEh]      -0.72815734 [kcal/mol]      -3.04661031 [kJ/mol]
  Total SAPT0                      -1.29611460 [mEh]      -0.81332419 [kcal/mol]      -3.40294841 [kJ/mol]
  Total SAPT2                      -1.14956654 [mEh]      -0.72136390 [kcal/mol]      -3.01818654 [kJ/mol]
  Total SAPT2+                     -1.16658188 [mEh]      -0.73204118 [kcal/mol]      -3.06286030 [kJ/mol]

  Special recipe for scaled SAPT0 (see Manual):
    Electrostatics sSAPT0          -1.13706558 [mEh]      -0.71351942 [kcal/mol]      -2.98536527 [kJ/mol]
    Exchange sSAPT0                 0.00294759 [mEh]       0.00184964 [kcal/mol]       0.00773889 [kJ/mol]
    Induction sSAPT0               -0.02627459 [mEh]      -0.01648756 [kcal/mol]      -0.06898393 [kJ/mol]
    Dispersion sSAPT0              -0.13572202 [mEh]      -0.08516685 [kcal/mol]      -0.35633810 [kJ/mol]
  Total sSAPT0                     -1.29611460 [mEh]      -0.81332419 [kcal/mol]      -3.40294841 [kJ/mol]
  --------------------------------------------------------------------------------------------------------

*** Psi4 exiting successfully. Buy a developer a beer!
