                               Psi4 1.4a2.dev224

  ==> Input File <==

--------------------------------------------------------------------------
#Generated by lconvert.py for sapt job

memory 50 GB

molecule  {
0 1
  F       1.798660   -0.304510    0.000170
  C       1.627340    1.070430    0.000110
  H       0.564780    1.293980    0.000090
  H       2.096650    1.483170   -0.888820
  H       2.096630    1.483250    0.889000
--
0 1
  F      -2.577360    0.153250    0.000230
  C      -2.406170   -1.221710    0.000140
  H      -2.875610   -1.634400   -0.888740
  H      -2.875400   -1.634490    0.889080
  H      -1.343620   -1.445360    0.000000
units angstrom
no_reorient
symmetry c1
}

set {
scf_type DF
basis aug-cc-pvtz
freeze_core True
guess SAD
}
energy('sapt2+')
--------------------------------------------------------------------------

  //              Dimer HF             //
    Molecular point group: c1
  Charge       = 0
  Multiplicity = 1
  Basis Set: AUG-CC-PVTZ
    Blend: AUG-CC-PVTZ
  Basis Set: (AUG-CC-PVTZ AUX)
    Blend: AUG-CC-PVTZ-JKFIT
  @DF-RHF Final Energy:  -278.19635785438953
    Total Energy =                       -278.1963578543895323
  //            Monomer A HF           //
    Molecular point group: c1
  Multiplicity = 1
  Basis Set: AUG-CC-PVTZ
    Blend: AUG-CC-PVTZ
  Basis Set: (AUG-CC-PVTZ AUX)
    Blend: AUG-CC-PVTZ-JKFIT
  @DF-RHF Final Energy:  -139.09742355782228
    Total Energy =                       -139.0974235578222533
  //            Monomer B HF           //
    Molecular point group: c1

    Geometry (in Angstrom), charge = 0, multiplicity = 1:

       Center              X                  Y                   Z               Mass
    ------------   -----------------  -----------------  -----------------  -----------------
      Gh(F)           2.188039887794    -0.228875436058     0.000005192307    18.998403162730
      Gh(C)           2.016719887794     1.146064563942    -0.000054807693    12.000000000000
      Gh(H)           0.954159887794     1.369614563942    -0.000074807693     1.007825032230
      Gh(H)           2.486029887794     1.558804563942    -0.888984807693     1.007825032230
      Gh(H)           2.486009887794     1.558884563942     0.888835192307     1.007825032230
         F           -2.187980112206     0.228884563942     0.000065192307    18.998403162730
         C           -2.016790112206    -1.146075436058    -0.000024807693    12.000000000000
         H           -2.486230112206    -1.558765436058    -0.888904807693     1.007825032230
         H           -2.486020112206    -1.558855436058     0.888915192307     1.007825032230
         H           -0.954240112206    -1.369725436058    -0.000164807693     1.007825032230

  Charge       = 0
  Multiplicity = 1
  Basis Set: AUG-CC-PVTZ
    Blend: AUG-CC-PVTZ
  Basis Set: (AUG-CC-PVTZ AUX)
    Blend: AUG-CC-PVTZ-JKFIT

    Orbital Energies [Eh]
    ---------------------

    Doubly Occupied:

       1A    -26.278321     2A    -11.305515     3A     -1.586043
       4A     -0.956258     5A     -0.695360     6A     -0.694992
       7A     -0.673909     8A     -0.532437     9A     -0.531608

  @DF-RHF Final Energy:  -139.09742337675823

   => Energetics <=

    Nuclear Repulsion Energy =             37.3604751740931817
    One-Electron Energy =                -266.4069113673797347
    Two-Electron Energy =                  89.9490128165283238
    Total Energy =                       -139.0974233767582291

  Dipole Moment: [D]
     X:     0.2529      Y:    -2.0476      Z:    -0.0001     Total:     2.0632

    SAPT Results
  --------------------------------------------------------------------------------------------------------
    Electrostatics                 -1.34564234 [mEh]      -0.84440332 [kcal/mol]      -3.53298348 [kJ/mol]
      Elst10,r                     -1.54475379 [mEh]      -0.96934764 [kcal/mol]      -4.05575052 [kJ/mol]
      Elst12,r                      0.19911145 [mEh]       0.12494432 [kcal/mol]       0.52276704 [kJ/mol]

    Exchange                        0.15601239 [mEh]       0.09789925 [kcal/mol]       0.40961047 [kJ/mol]
      Exch10                        0.12608401 [mEh]       0.07911891 [kcal/mol]       0.33103352 [kJ/mol]
      Exch10(S^2)                   0.12607916 [mEh]       0.07911587 [kcal/mol]       0.33102080 [kJ/mol]
      Exch11(S^2)                  -0.00349293 [mEh]      -0.00219185 [kcal/mol]      -0.00917070 [kJ/mol]
      Exch12(S^2)                   0.03342131 [mEh]       0.02097219 [kcal/mol]       0.08774765 [kJ/mol]

    Induction                      -0.09071447 [mEh]      -0.05692419 [kcal/mol]      -0.23817081 [kJ/mol]
      Ind20,r                      -0.10031134 [mEh]      -0.06294632 [kcal/mol]      -0.26336740 [kJ/mol]
      Ind22                         0.00188044 [mEh]       0.00117999 [kcal/mol]       0.00493709 [kJ/mol]
      Exch-Ind20,r                  0.01839753 [mEh]       0.01154462 [kcal/mol]       0.04830271 [kJ/mol]
      Exch-Ind22                   -0.00034488 [mEh]      -0.00021642 [kcal/mol]      -0.00090548 [kJ/mol]
      delta HF,r (2)               -0.01033621 [mEh]      -0.00648607 [kcal/mol]      -0.02713772 [kJ/mol]

    Dispersion                     -0.67893744 [mEh]      -0.42603968 [kcal/mol]      -1.78255001 [kJ/mol]
      Disp20                       -0.60254045 [mEh]      -0.37809984 [kcal/mol]      -1.58196974 [kJ/mol]
      Disp21                       -0.00188548 [mEh]      -0.00118315 [kcal/mol]      -0.00495032 [kJ/mol]
      Disp22 (SDQ)                  0.00677857 [mEh]       0.00425362 [kcal/mol]       0.01779713 [kJ/mol]
      Disp22 (T)                   -0.08923619 [mEh]      -0.05599656 [kcal/mol]      -0.23428959 [kJ/mol]
      Est. Disp22 (T)              -0.09578747 [mEh]      -0.06010754 [kcal/mol]      -0.25148996 [kJ/mol]
      Exch-Disp20                   0.01449738 [mEh]       0.00909725 [kcal/mol]       0.03806287 [kJ/mol]

  Total HF                         -1.51091981 [mEh]      -0.94811649 [kcal/mol]      -3.96691941 [kJ/mol]
  Total SAPT0                      -2.09896288 [mEh]      -1.31711909 [kcal/mol]      -5.51082628 [kJ/mol]
  Total SAPT2                      -1.86838749 [mEh]      -1.17243085 [kcal/mol]      -4.90545068 [kJ/mol]
  Total SAPT2+                     -1.95928187 [mEh]      -1.22946793 [kcal/mol]      -5.14409383 [kJ/mol]

  Special recipe for scaled SAPT0 (see Manual):
    Electrostatics sSAPT0          -1.54475379 [mEh]      -0.96934764 [kcal/mol]      -4.05575052 [kJ/mol]
    Exchange sSAPT0                 0.12608401 [mEh]       0.07911891 [kcal/mol]       0.33103352 [kJ/mol]
    Induction sSAPT0               -0.09224791 [mEh]      -0.05788644 [kcal/mol]      -0.24219685 [kJ/mol]
    Dispersion sSAPT0              -0.58804140 [mEh]      -0.36900155 [kcal/mol]      -1.54390248 [kJ/mol]
  Total sSAPT0                     -2.09895908 [mEh]      -1.31711671 [kcal/mol]      -5.51081632 [kJ/mol]
  --------------------------------------------------------------------------------------------------------

*** Psi4 exiting successfully. Buy a developer a beer!
