                               Psi4 1.4a2.dev224

  ==> Input File <==

--------------------------------------------------------------------------
#Generated by lconvert.py for sapt job

memory 50 GB

molecule  {
0 1
  F       1.798660   -0.304510    0.000170
  C       1.627340    1.070430    0.000110
  H       0.564780    1.293980    0.000090
  H       2.096650    1.483170   -0.888820
  H       2.096630    1.483250    0.889000
--
0 1
  F      -4.145120   -0.151280    0.000240
  C      -3.973920   -1.526230    0.000150
  H      -4.443370   -1.938920   -0.888720
  H      -4.443160   -1.939010    0.889100
  H      -2.911380   -1.749890    0.000020
units angstrom
no_reorient
symmetry c1
}

set {
scf_type DF
basis aug-cc-pvtz
freeze_core True
guess SAD
}
energy('sapt2+')
--------------------------------------------------------------------------

  //              Dimer HF             //
    Molecular point group: c1
  Charge       = 0
  Multiplicity = 1
  Basis Set: AUG-CC-PVTZ
    Blend: AUG-CC-PVTZ
  Basis Set: (AUG-CC-PVTZ AUX)
    Blend: AUG-CC-PVTZ-JKFIT
  @DF-RHF Final Energy:  -278.19530749793898
    Total Energy =                       -278.1953074979389839
  //            Monomer A HF           //
    Molecular point group: c1
  Multiplicity = 1
  Basis Set: AUG-CC-PVTZ
    Blend: AUG-CC-PVTZ
  Basis Set: (AUG-CC-PVTZ AUX)
    Blend: AUG-CC-PVTZ-JKFIT
  @DF-RHF Final Energy:  -139.09738424244983
    Total Energy =                       -139.0973842424498343
  //            Monomer B HF           //
    Molecular point group: c1

    Geometry (in Angstrom), charge = 0, multiplicity = 1:

       Center              X                  Y                   Z               Mass
    ------------   -----------------  -----------------  -----------------  -----------------
      Gh(F)           2.971918124223    -0.076612495858    -0.000000252036    18.998403162730
      Gh(C)           2.800598124223     1.298327504142    -0.000060252036    12.000000000000
      Gh(H)           1.738038124223     1.521877504142    -0.000080252036     1.007825032230
      Gh(H)           3.269908124223     1.711067504142    -0.888990252036     1.007825032230
      Gh(H)           3.269888124223     1.711147504142     0.888829747964     1.007825032230
         F           -2.971861875777     0.076617504142     0.000069747964    18.998403162730
         C           -2.800661875777    -1.298332495858    -0.000020252036    12.000000000000
         H           -3.270111875777    -1.711022495858    -0.888890252036     1.007825032230
         H           -3.269901875777    -1.711112495858     0.888929747964     1.007825032230
         H           -1.738121875777    -1.521992495858    -0.000150252036     1.007825032230

  Charge       = 0
  Multiplicity = 1
  Basis Set: AUG-CC-PVTZ
    Blend: AUG-CC-PVTZ
  Basis Set: (AUG-CC-PVTZ AUX)
    Blend: AUG-CC-PVTZ-JKFIT

    Orbital Energies [Eh]
    ---------------------

    Doubly Occupied:

       1A    -26.278355     2A    -11.305516     3A     -1.586067
       4A     -0.956268     5A     -0.695375     6A     -0.695006
       7A     -0.673922     8A     -0.532443     9A     -0.531613

  @DF-RHF Final Energy:  -139.09738432669064

   => Energetics <=

    Nuclear Repulsion Energy =             37.3606231249084146
    One-Electron Energy =                -266.4068845845451960
    Two-Electron Energy =                  89.9488771329461230
    Total Energy =                       -139.0973843266906442

  Dipole Moment: [D]
     X:     0.2542      Y:    -2.0479      Z:    -0.0001     Total:     2.0636

    SAPT Results
  --------------------------------------------------------------------------------------------------------
    Electrostatics                 -0.44605015 [mEh]      -0.27990070 [kcal/mol]      -1.17110451 [kJ/mol]
      Elst10,r                     -0.53017315 [mEh]      -0.33268868 [kcal/mol]      -1.39196942 [kJ/mol]
      Elst12,r                      0.08412300 [mEh]       0.05278798 [kcal/mol]       0.22086491 [kJ/mol]

    Exchange                        0.00036716 [mEh]       0.00023039 [kcal/mol]       0.00096397 [kJ/mol]
      Exch10                        0.00028607 [mEh]       0.00017951 [kcal/mol]       0.00075107 [kJ/mol]
      Exch10(S^2)                   0.00028607 [mEh]       0.00017951 [kcal/mol]       0.00075107 [kJ/mol]
      Exch11(S^2)                  -0.00001436 [mEh]      -0.00000901 [kcal/mol]      -0.00003771 [kJ/mol]
      Exch12(S^2)                   0.00009545 [mEh]       0.00005990 [kcal/mol]       0.00025062 [kJ/mol]

    Induction                      -0.00824413 [mEh]      -0.00517327 [kcal/mol]      -0.02164496 [kJ/mol]
      Ind20,r                      -0.00882953 [mEh]      -0.00554062 [kcal/mol]      -0.02318194 [kJ/mol]
      Ind22                         0.00080024 [mEh]       0.00050216 [kcal/mol]       0.00210103 [kJ/mol]
      Exch-Ind20,r                  0.00002931 [mEh]       0.00001839 [kcal/mol]       0.00007695 [kJ/mol]
      Exch-Ind22                   -0.00000266 [mEh]      -0.00000167 [kcal/mol]      -0.00000697 [kJ/mol]
      delta HF,r (2)               -0.00024149 [mEh]      -0.00015154 [kcal/mol]      -0.00063403 [kJ/mol]

    Dispersion                     -0.08501352 [mEh]      -0.05334679 [kcal/mol]      -0.22320297 [kJ/mol]
      Disp20                       -0.07666634 [mEh]      -0.04810886 [kcal/mol]      -0.20128746 [kJ/mol]
      Disp21                        0.00172312 [mEh]       0.00108127 [kcal/mol]       0.00452404 [kJ/mol]
      Disp22 (SDQ)                  0.00197344 [mEh]       0.00123835 [kcal/mol]       0.00518126 [kJ/mol]
      Disp22 (T)                   -0.01171907 [mEh]      -0.00735383 [kcal/mol]      -0.03076841 [kJ/mol]
      Est. Disp22 (T)              -0.01209269 [mEh]      -0.00758828 [kcal/mol]      -0.03174934 [kJ/mol]
      Exch-Disp20                   0.00004895 [mEh]       0.00003072 [kcal/mol]       0.00012852 [kJ/mol]

  Total HF                         -0.53892880 [mEh]      -0.33818293 [kcal/mol]      -1.41495737 [kJ/mol]
  Total SAPT0                      -0.61554619 [mEh]      -0.38626107 [kcal/mol]      -1.61611630 [kJ/mol]
  Total SAPT2                      -0.53054452 [mEh]      -0.33292171 [kcal/mol]      -1.39294444 [kJ/mol]
  Total SAPT2+                     -0.53894065 [mEh]      -0.33819036 [kcal/mol]      -1.41498847 [kJ/mol]

  Special recipe for scaled SAPT0 (see Manual):
    Electrostatics sSAPT0          -0.53017315 [mEh]      -0.33268868 [kcal/mol]      -1.39196942 [kJ/mol]
    Exchange sSAPT0                 0.00028607 [mEh]       0.00017951 [kcal/mol]       0.00075107 [kJ/mol]
    Induction sSAPT0               -0.00904171 [mEh]      -0.00567376 [kcal/mol]      -0.02373902 [kJ/mol]
    Dispersion sSAPT0              -0.07661739 [mEh]      -0.04807814 [kcal/mol]      -0.20115894 [kJ/mol]
  Total sSAPT0                     -0.61554619 [mEh]      -0.38626107 [kcal/mol]      -1.61611630 [kJ/mol]
  --------------------------------------------------------------------------------------------------------

*** Psi4 exiting successfully. Buy a developer a beer!
