                               Psi4 1.4a2.dev224

  ==> Input File <==

--------------------------------------------------------------------------
#Generated by lconvert.py for sapt job

memory 50 GB

molecule  {
0 1
  F       1.798660   -0.304510    0.000170
  C       1.627340    1.070430    0.000110
  H       0.564780    1.293980    0.000090
  H       2.096650    1.483170   -0.888820
  H       2.096630    1.483250    0.889000
--
0 1
  F      -3.361240    0.000990    0.000230
  C      -3.190050   -1.373970    0.000150
  H      -3.659490   -1.786660   -0.888730
  H      -3.659280   -1.786750    0.889090
  H      -2.127500   -1.597630    0.000010
units angstrom
no_reorient
symmetry c1
}

set {
scf_type DF
basis aug-cc-pvtz
freeze_core True
guess SAD
}
energy('sapt2+')
--------------------------------------------------------------------------

  //              Dimer HF             //
    Molecular point group: c1
  Charge       = 0
  Multiplicity = 1
  Basis Set: AUG-CC-PVTZ
    Blend: AUG-CC-PVTZ
  Basis Set: (AUG-CC-PVTZ AUX)
    Blend: AUG-CC-PVTZ-JKFIT
  @DF-RHF Final Energy:  -278.19566613403344
    Total Energy =                       -278.1956661340334449
  //            Monomer A HF           //
    Molecular point group: c1
  Multiplicity = 1
  Basis Set: AUG-CC-PVTZ
    Blend: AUG-CC-PVTZ
  Basis Set: (AUG-CC-PVTZ AUX)
    Blend: AUG-CC-PVTZ-JKFIT
  @DF-RHF Final Energy:  -139.09739647113256
    Total Energy =                       -139.0973964711325550
  //            Monomer B HF           //
    Molecular point group: c1

    Geometry (in Angstrom), charge = 0, multiplicity = 1:

       Center              X                  Y                   Z               Mass
    ------------   -----------------  -----------------  -----------------  -----------------
      Gh(F)           2.579979887794    -0.152745287944     0.000002984393    18.998403162730
      Gh(C)           2.408659887794     1.222194712056    -0.000057015607    12.000000000000
      Gh(H)           1.346099887794     1.445744712056    -0.000077015607     1.007825032230
      Gh(H)           2.877969887794     1.634934712056    -0.888987015607     1.007825032230
      Gh(H)           2.877949887794     1.635014712056     0.888832984393     1.007825032230
         F           -2.579920112206     0.152754712056     0.000062984393    18.998403162730
         C           -2.408730112206    -1.222205287944    -0.000017015607    12.000000000000
         H           -2.878170112206    -1.634895287944    -0.888897015607     1.007825032230
         H           -2.877960112206    -1.634985287944     0.888922984393     1.007825032230
         H           -1.346180112206    -1.445865287944    -0.000157015607     1.007825032230

  Charge       = 0
  Multiplicity = 1
  Basis Set: AUG-CC-PVTZ
    Blend: AUG-CC-PVTZ
  Basis Set: (AUG-CC-PVTZ AUX)
    Blend: AUG-CC-PVTZ-JKFIT

    Orbital Energies [Eh]
    ---------------------

    Doubly Occupied:

       1A    -26.278335     2A    -11.305513     3A     -1.586051
       4A     -0.956261     5A     -0.695366     6A     -0.694995
       7A     -0.673911     8A     -0.532438     9A     -0.531609

  @DF-RHF Final Energy:  -139.09739624901678

   => Energetics <=

    Nuclear Repulsion Energy =             37.3604607462215910
    One-Electron Energy =                -266.4067507859825810
    Two-Electron Energy =                  89.9488937907442221
    Total Energy =                       -139.0973962490167821

  Dipole Moment: [D]
     X:     0.2535      Y:    -2.0477      Z:    -0.0001     Total:     2.0634

    SAPT Results
  --------------------------------------------------------------------------------------------------------
    Electrostatics                 -0.72577091 [mEh]      -0.45542812 [kcal/mol]      -1.90551125 [kJ/mol]
      Elst10,r                     -0.85439733 [mEh]      -0.53614242 [kcal/mol]      -2.24321989 [kJ/mol]
      Elst12,r                      0.12862643 [mEh]       0.08071430 [kcal/mol]       0.33770864 [kJ/mol]

    Exchange                        0.00758516 [mEh]       0.00475976 [kcal/mol]       0.01991484 [kJ/mol]
      Exch10                        0.00592919 [mEh]       0.00372062 [kcal/mol]       0.01556709 [kJ/mol]
      Exch10(S^2)                   0.00592918 [mEh]       0.00372062 [kcal/mol]       0.01556706 [kJ/mol]
      Exch11(S^2)                  -0.00025180 [mEh]      -0.00015801 [kcal/mol]      -0.00066111 [kJ/mol]
      Exch12(S^2)                   0.00190777 [mEh]       0.00119714 [kcal/mol]       0.00500885 [kJ/mol]

    Induction                      -0.02315862 [mEh]      -0.01453225 [kcal/mol]      -0.06080295 [kJ/mol]
      Ind20,r                      -0.02477309 [mEh]      -0.01554535 [kcal/mol]      -0.06504174 [kJ/mol]
      Ind22                         0.00183981 [mEh]       0.00115450 [kcal/mol]       0.00483041 [kJ/mol]
      Exch-Ind20,r                  0.00070941 [mEh]       0.00044516 [kcal/mol]       0.00186255 [kJ/mol]
      Exch-Ind22                   -0.00005269 [mEh]      -0.00003306 [kcal/mol]      -0.00013832 [kJ/mol]
      delta HF,r (2)               -0.00088206 [mEh]      -0.00055350 [kcal/mol]      -0.00231584 [kJ/mol]

    Dispersion                     -0.21736461 [mEh]      -0.13639835 [kcal/mol]      -0.57069070 [kJ/mol]
      Disp20                       -0.19398820 [mEh]      -0.12172943 [kcal/mol]      -0.50931595 [kJ/mol]
      Disp21                        0.00236650 [mEh]       0.00148500 [kcal/mol]       0.00621326 [kJ/mol]
      Disp22 (SDQ)                  0.00398009 [mEh]       0.00249755 [kcal/mol]       0.01044973 [kJ/mol]
      Disp22 (T)                   -0.02917505 [mEh]      -0.01830762 [kcal/mol]      -0.07659908 [kJ/mol]
      Est. Disp22 (T)              -0.03056690 [mEh]      -0.01918102 [kcal/mol]      -0.08025339 [kJ/mol]
      Exch-Disp20                   0.00084389 [mEh]       0.00052955 [kcal/mol]       0.00221564 [kJ/mol]

  Total HF                         -0.87341388 [mEh]      -0.54807549 [kcal/mol]      -2.29314784 [kJ/mol]
  Total SAPT0                      -1.06655819 [mEh]      -0.66927537 [kcal/mol]      -2.80024814 [kJ/mol]
  Total SAPT2                      -0.93448867 [mEh]      -0.58640050 [kcal/mol]      -2.45349967 [kJ/mol]
  Total SAPT2+                     -0.95870898 [mEh]      -0.60159897 [kcal/mol]      -2.51709007 [kJ/mol]

  Special recipe for scaled SAPT0 (see Manual):
    Electrostatics sSAPT0          -0.85439733 [mEh]      -0.53614242 [kcal/mol]      -2.24321989 [kJ/mol]
    Exchange sSAPT0                 0.00592919 [mEh]       0.00372062 [kcal/mol]       0.01556709 [kJ/mol]
    Induction sSAPT0               -0.02494574 [mEh]      -0.01565369 [kcal/mol]      -0.06549504 [kJ/mol]
    Dispersion sSAPT0              -0.19314431 [mEh]      -0.12119988 [kcal/mol]      -0.50710030 [kJ/mol]
  Total sSAPT0                     -1.06655819 [mEh]      -0.66927537 [kcal/mol]      -2.80024814 [kJ/mol]
  --------------------------------------------------------------------------------------------------------

*** Psi4 exiting successfully. Buy a developer a beer!
