                               Psi4 1.4a2.dev224

  ==> Input File <==

--------------------------------------------------------------------------
#Generated by lconvert.py for sapt job

memory 50 GB

molecule  {
0 1
  F      -0.914320    0.000010    0.000000
  C      -2.297350    0.000020    0.000000
  H      -2.651740    1.027060   -0.000000
  H      -2.651750   -0.513490    0.889440
  H      -2.651750   -0.513490   -0.889440
--
0 1
  F       4.524710    0.000020    0.000000
  C       3.141340    0.000020    0.000000
  H       2.783510    1.025420    0.000000
  H       2.783510   -0.512680    0.888020
  H       2.783510   -0.512680   -0.888020
units angstrom
no_reorient
symmetry c1
}

set {
scf_type DF
basis aug-cc-pvtz
freeze_core True
guess SAD
}
energy('sapt2+')
--------------------------------------------------------------------------

  //              Dimer HF             //
    Molecular point group: c1
  Charge       = 0
  Multiplicity = 1
  Basis Set: AUG-CC-PVTZ
    Blend: AUG-CC-PVTZ
  Basis Set: (AUG-CC-PVTZ AUX)
    Blend: AUG-CC-PVTZ-JKFIT
  @DF-RHF Final Energy:  -278.19603725256604
    Total Energy =                       -278.1960372525660432
  //            Monomer A HF           //
    Molecular point group: c1
  Multiplicity = 1
  Basis Set: AUG-CC-PVTZ
    Blend: AUG-CC-PVTZ
  Basis Set: (AUG-CC-PVTZ AUX)
    Blend: AUG-CC-PVTZ-JKFIT
  @DF-RHF Final Energy:  -139.09745725980119
    Total Energy =                       -139.0974572598011889
  //            Monomer B HF           //
    Molecular point group: c1

    Geometry (in Angstrom), charge = 0, multiplicity = 1:

       Center              X                  Y                   Z               Mass
    ------------   -----------------  -----------------  -----------------  -----------------
      Gh(F)          -2.077070441766    -0.000007504142     0.000000000000    18.998403162730
      Gh(C)          -3.460100441766     0.000002495858     0.000000000000    12.000000000000
      Gh(H)          -3.814490441766     1.027042495858     0.000000000000     1.007825032230
      Gh(H)          -3.814500441766    -0.513507504142     0.889440000000     1.007825032230
      Gh(H)          -3.814500441766    -0.513507504142    -0.889440000000     1.007825032230
         F            3.361959558234     0.000002495858     0.000000000000    18.998403162730
         C            1.978589558234     0.000002495858     0.000000000000    12.000000000000
         H            1.620759558234     1.025402495858     0.000000000000     1.007825032230
         H            1.620759558234    -0.512697504142     0.888020000000     1.007825032230
         H            1.620759558234    -0.512697504142    -0.888020000000     1.007825032230

  Charge       = 0
  Multiplicity = 1
  Basis Set: AUG-CC-PVTZ
    Blend: AUG-CC-PVTZ
  Basis Set: (AUG-CC-PVTZ AUX)
    Blend: AUG-CC-PVTZ-JKFIT

    Orbital Energies [Eh]
    ---------------------

    Doubly Occupied:

       1A    -26.279153     2A    -11.305189     3A     -1.587314
       4A     -0.956569     5A     -0.695683     6A     -0.695683
       7A     -0.675612     8A     -0.531715     9A     -0.531715

  @DF-RHF Final Energy:  -139.09740764755361

   => Energetics <=

    Nuclear Repulsion Energy =             37.3916314205038773
    One-Electron Energy =                -266.4608074244528666
    Two-Electron Energy =                  89.9717683563953869
    Total Energy =                       -139.0974076475536094

  Dipole Moment: [D]
     X:    -2.0543      Y:    -0.0000      Z:     0.0000     Total:     2.0543

    SAPT Results
  --------------------------------------------------------------------------------------------------------
    Electrostatics                 -0.91040446 [mEh]      -0.57128742 [kcal/mol]      -2.39026658 [kJ/mol]
      Elst10,r                     -1.13720135 [mEh]      -0.71360462 [kcal/mol]      -2.98572174 [kJ/mol]
      Elst12,r                      0.22679690 [mEh]       0.14231720 [kcal/mol]       0.59545517 [kJ/mol]

    Exchange                        0.02545113 [mEh]       0.01597083 [kcal/mol]       0.06682193 [kJ/mol]
      Exch10                        0.01933755 [mEh]       0.01213449 [kcal/mol]       0.05077072 [kJ/mol]
      Exch10(S^2)                   0.01933750 [mEh]       0.01213446 [kcal/mol]       0.05077059 [kJ/mol]
      Exch11(S^2)                  -0.00067010 [mEh]      -0.00042050 [kcal/mol]      -0.00175936 [kJ/mol]
      Exch12(S^2)                   0.00678369 [mEh]       0.00425683 [kcal/mol]       0.01781057 [kJ/mol]

    Induction                      -0.04700448 [mEh]      -0.02949576 [kcal/mol]      -0.12341024 [kJ/mol]
      Ind20,r                      -0.05343661 [mEh]      -0.03353198 [kcal/mol]      -0.14029781 [kJ/mol]
      Ind22                         0.00771083 [mEh]       0.00483862 [kcal/mol]       0.02024479 [kJ/mol]
      Exch-Ind20,r                  0.00162102 [mEh]       0.00101720 [kcal/mol]       0.00425598 [kJ/mol]
      Exch-Ind22                   -0.00023391 [mEh]      -0.00014678 [kcal/mol]      -0.00061413 [kJ/mol]
      delta HF,r (2)               -0.00266581 [mEh]      -0.00167282 [kcal/mol]      -0.00699908 [kJ/mol]

    Dispersion                     -0.32487088 [mEh]      -0.20385955 [kcal/mol]      -0.85294838 [kJ/mol]
      Disp20                       -0.28556769 [mEh]      -0.17919643 [kcal/mol]      -0.74975787 [kJ/mol]
      Disp21                        0.00531767 [mEh]       0.00333689 [kcal/mol]       0.01396154 [kJ/mol]
      Disp22 (SDQ)                  0.00122352 [mEh]       0.00076777 [kcal/mol]       0.00321235 [kJ/mol]
      Disp22 (T)                   -0.04592751 [mEh]      -0.02881995 [kcal/mol]      -0.12058265 [kJ/mol]
      Est. Disp22 (T)              -0.04825072 [mEh]      -0.03027779 [kcal/mol]      -0.12668226 [kJ/mol]
      Exch-Disp20                   0.00240635 [mEh]       0.00151000 [kcal/mol]       0.00631786 [kJ/mol]

  Total HF                         -1.17234521 [mEh]      -0.73565773 [kcal/mol]      -3.07799193 [kJ/mol]
  Total SAPT0                      -1.45550656 [mEh]      -0.91334415 [kcal/mol]      -3.82143194 [kJ/mol]
  Total SAPT2                      -1.21511915 [mEh]      -0.76249878 [kcal/mol]      -3.19029490 [kJ/mol]
  Total SAPT2+                     -1.25682869 [mEh]      -0.78867191 [kcal/mol]      -3.29980326 [kJ/mol]

  Special recipe for scaled SAPT0 (see Manual):
    Electrostatics sSAPT0          -1.13720135 [mEh]      -0.71360462 [kcal/mol]      -2.98572174 [kJ/mol]
    Exchange sSAPT0                 0.01933755 [mEh]       0.01213449 [kcal/mol]       0.05077072 [kJ/mol]
    Induction sSAPT0               -0.05448139 [mEh]      -0.03418759 [kcal/mol]      -0.14304087 [kJ/mol]
    Dispersion sSAPT0              -0.28316133 [mEh]      -0.17768642 [kcal/mol]      -0.74343996 [kJ/mol]
  Total sSAPT0                     -1.45550653 [mEh]      -0.91334413 [kcal/mol]      -3.82143186 [kJ/mol]
  --------------------------------------------------------------------------------------------------------

*** Psi4 exiting successfully. Buy a developer a beer!
