                               Psi4 1.4a2.dev224

  ==> Input File <==

--------------------------------------------------------------------------
#Generated by lconvert.py for sapt job

memory 50 GB

molecule  {
0 1
  F      -0.914320    0.000010    0.000000
  C      -2.297350    0.000020    0.000000
  H      -2.651740    1.027060   -0.000000
  H      -2.651750   -0.513490    0.889440
  H      -2.651750   -0.513490   -0.889440
--
0 1
  F       5.515570    0.000020    0.000000
  C       4.132210    0.000020    0.000000
  H       3.774370    1.025420    0.000000
  H       3.774380   -0.512680    0.888020
  H       3.774380   -0.512680   -0.888020
units angstrom
no_reorient
symmetry c1
}

set {
scf_type DF
basis aug-cc-pvtz
freeze_core True
guess SAD
}
energy('sapt2+')
--------------------------------------------------------------------------

  //              Dimer HF             //
    Molecular point group: c1
  Charge       = 0
  Multiplicity = 1
  Basis Set: AUG-CC-PVTZ
    Blend: AUG-CC-PVTZ
  Basis Set: (AUG-CC-PVTZ AUX)
    Blend: AUG-CC-PVTZ-JKFIT
  @DF-RHF Final Energy:  -278.19556675248924
    Total Energy =                       -278.1955667524892419
  //            Monomer A HF           //
    Molecular point group: c1
  Multiplicity = 1
  Basis Set: AUG-CC-PVTZ
    Blend: AUG-CC-PVTZ
  Basis Set: (AUG-CC-PVTZ AUX)
    Blend: AUG-CC-PVTZ-JKFIT
  @DF-RHF Final Energy:  -139.09745009253456
    Total Energy =                       -139.0974500925345581
  //            Monomer B HF           //
    Molecular point group: c1

    Geometry (in Angstrom), charge = 0, multiplicity = 1:

       Center              X                  Y                   Z               Mass
    ------------   -----------------  -----------------  -----------------  -----------------
      Gh(F)          -2.572502501565    -0.000007504142     0.000000000000    18.998403162730
      Gh(C)          -3.955532501565     0.000002495858     0.000000000000    12.000000000000
      Gh(H)          -4.309922501565     1.027042495858     0.000000000000     1.007825032230
      Gh(H)          -4.309932501565    -0.513507504142     0.889440000000     1.007825032230
      Gh(H)          -4.309932501565    -0.513507504142    -0.889440000000     1.007825032230
         F            3.857387498435     0.000002495858     0.000000000000    18.998403162730
         C            2.474027498435     0.000002495858     0.000000000000    12.000000000000
         H            2.116187498435     1.025402495858     0.000000000000     1.007825032230
         H            2.116197498435    -0.512697504142     0.888020000000     1.007825032230
         H            2.116197498435    -0.512697504142    -0.888020000000     1.007825032230

  Charge       = 0
  Multiplicity = 1
  Basis Set: AUG-CC-PVTZ
    Blend: AUG-CC-PVTZ
  Basis Set: (AUG-CC-PVTZ AUX)
    Blend: AUG-CC-PVTZ-JKFIT

    Orbital Energies [Eh]
    ---------------------

    Doubly Occupied:

       1A    -26.279159     2A    -11.305192     3A     -1.587322
       4A     -0.956572     5A     -0.695689     6A     -0.695689
       7A     -0.675619     8A     -0.531716     9A     -0.531715

  @DF-RHF Final Energy:  -139.09740272341821

   => Energetics <=

    Nuclear Repulsion Energy =             37.3917919733701609
    One-Electron Energy =                -266.4610429102905869
    Two-Electron Energy =                  89.9718482135021986
    Total Energy =                       -139.0974027234182131

  Dipole Moment: [D]
     X:    -2.0542      Y:    -0.0000      Z:    -0.0000     Total:     2.0542

    SAPT Results
  --------------------------------------------------------------------------------------------------------
    Electrostatics                 -0.56063413 [mEh]      -0.35180323 [kcal/mol]      -1.47194470 [kJ/mol]
      Elst10,r                     -0.69657337 [mEh]      -0.43710639 [kcal/mol]      -1.82885314 [kJ/mol]
      Elst12,r                      0.13593924 [mEh]       0.08530316 [kcal/mol]       0.35690844 [kJ/mol]

    Exchange                        0.00043707 [mEh]       0.00027427 [kcal/mol]       0.00114753 [kJ/mol]
      Exch10                        0.00030150 [mEh]       0.00018919 [kcal/mol]       0.00079158 [kJ/mol]
      Exch10(S^2)                   0.00030150 [mEh]       0.00018919 [kcal/mol]       0.00079158 [kJ/mol]
      Exch11(S^2)                  -0.00001697 [mEh]      -0.00001065 [kcal/mol]      -0.00004457 [kJ/mol]
      Exch12(S^2)                   0.00015255 [mEh]       0.00009573 [kcal/mol]       0.00040052 [kJ/mol]

    Induction                      -0.01511509 [mEh]      -0.00948486 [kcal/mol]      -0.03968465 [kJ/mol]
      Ind20,r                      -0.01731840 [mEh]      -0.01086746 [kcal/mol]      -0.04546946 [kJ/mol]
      Ind22                         0.00255309 [mEh]       0.00160209 [kcal/mol]       0.00670315 [kJ/mol]
      Exch-Ind20,r                  0.00002389 [mEh]       0.00001499 [kcal/mol]       0.00006271 [kJ/mol]
      Exch-Ind22                   -0.00000352 [mEh]      -0.00000221 [kcal/mol]      -0.00000924 [kJ/mol]
      delta HF,r (2)               -0.00037014 [mEh]      -0.00023227 [kcal/mol]      -0.00097181 [kJ/mol]

    Dispersion                     -0.08986931 [mEh]      -0.05639384 [kcal/mol]      -0.23595184 [kJ/mol]
      Disp20                       -0.07909655 [mEh]      -0.04963383 [kcal/mol]      -0.20766795 [kJ/mol]
      Disp21                        0.00216687 [mEh]       0.00135973 [kcal/mol]       0.00568911 [kJ/mol]
      Disp22 (SDQ)                  0.00067880 [mEh]       0.00042595 [kcal/mol]       0.00178219 [kJ/mol]
      Disp22 (T)                   -0.01331119 [mEh]      -0.00835290 [kcal/mol]      -0.03494852 [kJ/mol]
      Est. Disp22 (T)              -0.01367020 [mEh]      -0.00857818 [kcal/mol]      -0.03589112 [kJ/mol]
      Exch-Disp20                   0.00005178 [mEh]       0.00003249 [kcal/mol]       0.00013594 [kJ/mol]

  Total HF                         -0.71393654 [mEh]      -0.44800194 [kcal/mol]      -1.87444012 [kJ/mol]
  Total SAPT0                      -0.79298131 [mEh]      -0.49760328 [kcal/mol]      -2.08197214 [kJ/mol]
  Total SAPT2                      -0.65435691 [mEh]      -0.41061516 [kcal/mol]      -1.71801384 [kJ/mol]
  Total SAPT2+                     -0.66518145 [mEh]      -0.41740766 [kcal/mol]      -1.74643366 [kJ/mol]

  Special recipe for scaled SAPT0 (see Manual):
    Electrostatics sSAPT0          -0.69657337 [mEh]      -0.43710639 [kcal/mol]      -1.82885314 [kJ/mol]
    Exchange sSAPT0                 0.00030150 [mEh]       0.00018919 [kcal/mol]       0.00079158 [kJ/mol]
    Induction sSAPT0               -0.01766466 [mEh]      -0.01108474 [kcal/mol]      -0.04637855 [kJ/mol]
    Dispersion sSAPT0              -0.07904477 [mEh]      -0.04960134 [kcal/mol]      -0.20753202 [kJ/mol]
  Total sSAPT0                     -0.79298131 [mEh]      -0.49760328 [kcal/mol]      -2.08197214 [kJ/mol]
  --------------------------------------------------------------------------------------------------------

*** Psi4 exiting successfully. Buy a developer a beer!
