                               Psi4 1.4a2.dev224

  ==> Input File <==

--------------------------------------------------------------------------
#Generated by lconvert.py for sapt job

memory 50 GB

molecule  {
0 1
  F      -0.914320    0.000010    0.000000
  C      -2.297350    0.000020    0.000000
  H      -2.651740    1.027060   -0.000000
  H      -2.651750   -0.513490    0.889440
  H      -2.651750   -0.513490   -0.889440
--
0 1
  F       6.506440    0.000020    0.000000
  C       5.123070    0.000020    0.000000
  H       4.765240    1.025420    0.000000
  H       4.765240   -0.512680    0.888020
  H       4.765240   -0.512680   -0.888020
units angstrom
no_reorient
symmetry c1
}

set {
scf_type DF
basis aug-cc-pvtz
freeze_core True
guess SAD
}
energy('sapt2+')
--------------------------------------------------------------------------

  //              Dimer HF             //
    Molecular point group: c1
  Charge       = 0
  Multiplicity = 1
  Basis Set: AUG-CC-PVTZ
    Blend: AUG-CC-PVTZ
  Basis Set: (AUG-CC-PVTZ AUX)
    Blend: AUG-CC-PVTZ-JKFIT
  @DF-RHF Final Energy:  -278.19531361844025
    Total Energy =                       -278.1953136184402524
  //            Monomer A HF           //
    Molecular point group: c1
  Multiplicity = 1
  Basis Set: AUG-CC-PVTZ
    Blend: AUG-CC-PVTZ
  Basis Set: (AUG-CC-PVTZ AUX)
    Blend: AUG-CC-PVTZ-JKFIT
  @DF-RHF Final Energy:  -139.09744750576044
    Total Energy =                       -139.0974475057604423
  //            Monomer B HF           //
    Molecular point group: c1

    Geometry (in Angstrom), charge = 0, multiplicity = 1:

       Center              X                  Y                   Z               Mass
    ------------   -----------------  -----------------  -----------------  -----------------
      Gh(F)          -3.067935441766    -0.000007504142     0.000000000000    18.998403162730
      Gh(C)          -4.450965441766     0.000002495858     0.000000000000    12.000000000000
      Gh(H)          -4.805355441766     1.027042495858     0.000000000000     1.007825032230
      Gh(H)          -4.805365441766    -0.513507504142     0.889440000000     1.007825032230
      Gh(H)          -4.805365441766    -0.513507504142    -0.889440000000     1.007825032230
         F            4.352824558234     0.000002495858     0.000000000000    18.998403162730
         C            2.969454558234     0.000002495858     0.000000000000    12.000000000000
         H            2.611624558234     1.025402495858     0.000000000000     1.007825032230
         H            2.611624558234    -0.512697504142     0.888020000000     1.007825032230
         H            2.611624558234    -0.512697504142    -0.888020000000     1.007825032230

  Charge       = 0
  Multiplicity = 1
  Basis Set: AUG-CC-PVTZ
    Blend: AUG-CC-PVTZ
  Basis Set: (AUG-CC-PVTZ AUX)
    Blend: AUG-CC-PVTZ-JKFIT

    Orbital Energies [Eh]
    ---------------------

    Doubly Occupied:

       1A    -26.279159     2A    -11.305194     3A     -1.587318
       4A     -0.956572     5A     -0.695687     6A     -0.695687
       7A     -0.675616     8A     -0.531717     9A     -0.531717

  @DF-RHF Final Energy:  -139.09740101554127

   => Energetics <=

    Nuclear Repulsion Energy =             37.3916314205038702
    One-Electron Energy =                -266.4607272561897275
    Two-Electron Energy =                  89.9716948201446058
    Total Energy =                       -139.0974010155412657

  Dipole Moment: [D]
     X:    -2.0542      Y:    -0.0000      Z:    -0.0000     Total:     2.0542

    SAPT Results
  --------------------------------------------------------------------------------------------------------
    Electrostatics                 -0.37062289 [mEh]      -0.23256938 [kcal/mol]      -0.97307027 [kJ/mol]
      Elst10,r                     -0.45795928 [mEh]      -0.28737379 [kcal/mol]      -1.20237192 [kJ/mol]
      Elst12,r                      0.08733638 [mEh]       0.05480441 [kcal/mol]       0.22930165 [kJ/mol]

    Exchange                        0.00000775 [mEh]       0.00000486 [kcal/mol]       0.00002035 [kJ/mol]
      Exch10                        0.00000437 [mEh]       0.00000274 [kcal/mol]       0.00001148 [kJ/mol]
      Exch10(S^2)                   0.00000437 [mEh]       0.00000274 [kcal/mol]       0.00001148 [kJ/mol]
      Exch11(S^2)                  -0.00000037 [mEh]      -0.00000023 [kcal/mol]      -0.00000097 [kJ/mol]
      Exch12(S^2)                   0.00000375 [mEh]       0.00000235 [kcal/mol]       0.00000984 [kJ/mol]

    Induction                      -0.00619265 [mEh]      -0.00388594 [kcal/mol]      -0.01625879 [kJ/mol]
      Ind20,r                      -0.00689404 [mEh]      -0.00432607 [kcal/mol]      -0.01810029 [kJ/mol]
      Ind22                         0.00094968 [mEh]       0.00059594 [kcal/mol]       0.00249340 [kJ/mol]
      Exch-Ind20,r                  0.00000071 [mEh]       0.00000044 [kcal/mol]       0.00000185 [kJ/mol]
      Exch-Ind22                   -0.00000010 [mEh]      -0.00000006 [kcal/mol]      -0.00000026 [kJ/mol]
      delta HF,r (2)               -0.00024891 [mEh]      -0.00015619 [kcal/mol]      -0.00065350 [kJ/mol]

    Dispersion                     -0.03235856 [mEh]      -0.02030530 [kcal/mol]      -0.08495739 [kJ/mol]
      Disp20                       -0.02855253 [mEh]      -0.01791698 [kcal/mol]      -0.07496465 [kJ/mol]
      Disp21                        0.00089042 [mEh]       0.00055875 [kcal/mol]       0.00233780 [kJ/mol]
      Disp22 (SDQ)                  0.00029572 [mEh]       0.00018557 [kcal/mol]       0.00077643 [kJ/mol]
      Disp22 (T)                   -0.00488782 [mEh]      -0.00306716 [kcal/mol]      -0.01283298 [kJ/mol]
      Est. Disp22 (T)              -0.00499326 [mEh]      -0.00313332 [kcal/mol]      -0.01310981 [kJ/mol]
      Exch-Disp20                   0.00000108 [mEh]       0.00000068 [kcal/mol]       0.00000285 [kJ/mol]

  Total HF                         -0.46509714 [mEh]      -0.29185286 [kcal/mol]      -1.22111237 [kJ/mol]
  Total SAPT0                      -0.49364858 [mEh]      -0.30976916 [kcal/mol]      -1.29607417 [kJ/mol]
  Total SAPT2                      -0.40535923 [mEh]      -0.25436676 [kcal/mol]      -1.06427052 [kJ/mol]
  Total SAPT2+                     -0.40916635 [mEh]      -0.25675576 [kcal/mol]      -1.07426611 [kJ/mol]

  Special recipe for scaled SAPT0 (see Manual):
    Electrostatics sSAPT0          -0.45795928 [mEh]      -0.28737379 [kcal/mol]      -1.20237192 [kJ/mol]
    Exchange sSAPT0                 0.00000437 [mEh]       0.00000274 [kcal/mol]       0.00001148 [kJ/mol]
    Induction sSAPT0               -0.00714223 [mEh]      -0.00448182 [kcal/mol]      -0.01875193 [kJ/mol]
    Dispersion sSAPT0              -0.02855144 [mEh]      -0.01791630 [kcal/mol]      -0.07496180 [kJ/mol]
  Total sSAPT0                     -0.49364858 [mEh]      -0.30976916 [kcal/mol]      -1.29607417 [kJ/mol]
  --------------------------------------------------------------------------------------------------------

*** Psi4 exiting successfully. Buy a developer a beer!
