                               Psi4 1.4a2.dev224

  ==> Input File <==

--------------------------------------------------------------------------
#Generated by lconvert.py for sapt job

memory 50 GB

molecule  {
0 1
 Cl      -0.951590   -0.634070    0.000550
  C      -0.802050    1.145010   -0.005550
  H       0.246630    1.395490   -0.109290
  H      -1.376730    1.527610   -0.840160
  H      -1.196870    1.519070    0.931130
--
0 1
  O       3.935190    0.104600    0.027810
  H       4.727070   -0.407720   -0.144400
  H       3.231110   -0.550680    0.030070
units angstrom
no_reorient
symmetry c1
}

set {
scf_type DF
basis aug-cc-pvtz
freeze_core True
guess SAD
}
energy('sapt2+')
--------------------------------------------------------------------------

  //              Dimer HF             //
    Molecular point group: c1
  Charge       = 0
  Multiplicity = 1
  Basis Set: AUG-CC-PVTZ
    Blend: AUG-CC-PVTZ
  Basis Set: (AUG-CC-PVTZ AUX)
    Blend: AUG-CC-PVTZ-JKFIT
  @DF-RHF Final Energy:  -575.21051524923018
    Total Energy =                       -575.2105152492301841
  //            Monomer A HF           //
    Molecular point group: c1
  Multiplicity = 1
  Basis Set: AUG-CC-PVTZ
    Blend: AUG-CC-PVTZ
  Basis Set: (AUG-CC-PVTZ AUX)
    Blend: AUG-CC-PVTZ-JKFIT
  @DF-RHF Final Energy:  -499.14888489375755
    Total Energy =                       -499.1488848937575540
  //            Monomer B HF           //
    Molecular point group: c1

    Geometry (in Angstrom), charge = 0, multiplicity = 1:

       Center              X                  Y                   Z               Mass
    ------------   -----------------  -----------------  -----------------  -----------------
      Gh(CL)         -1.329775265457    -0.586300241675    -0.003328709338    34.968852682000
      Gh(C)          -1.180235265457     1.192779758325    -0.009428709338    12.000000000000
      Gh(H)          -0.131555265457     1.443259758325    -0.113168709338     1.007825032230
      Gh(H)          -1.754915265457     1.575379758325    -0.844038709338     1.007825032230
      Gh(H)          -1.575055265457     1.566839758325     0.927251290662     1.007825032230
         O            3.557004734543     0.152369758325     0.023931290662    15.994914619570
         H            4.348884734543    -0.359950241675    -0.148278709338     1.007825032230
         H            2.852924734543    -0.502910241675     0.026191290662     1.007825032230

  Charge       = 0
  Multiplicity = 1
  Basis Set: AUG-CC-PVTZ
    Blend: AUG-CC-PVTZ
  Basis Set: (AUG-CC-PVTZ AUX)
    Blend: AUG-CC-PVTZ-JKFIT

    Orbital Energies [Eh]
    ---------------------

    Doubly Occupied:

       1A    -20.567993     2A     -1.352446     3A     -0.715073
       4A     -0.585476     5A     -0.510278

  @DF-RHF Final Energy:   -76.06034882133532

   => Energetics <=

    Nuclear Repulsion Energy =              9.1667415021400664
    One-Electron Energy =                -122.9916436525544725
    Two-Electron Energy =                  37.7645533290790780
    Total Energy =                        -76.0603488213353245

  Dipole Moment: [D]
     X:     0.1493      Y:    -1.9685      Z:    -0.2869     Total:     1.9949

    SAPT Results
  --------------------------------------------------------------------------------------------------------
    Electrostatics                 -1.08309872 [mEh]      -0.67965471 [kcal/mol]      -2.84367530 [kJ/mol]
      Elst10,r                     -1.24531803 [mEh]      -0.78144886 [kcal/mol]      -3.26958202 [kJ/mol]
      Elst12,r                      0.16221930 [mEh]       0.10179415 [kcal/mol]       0.42590673 [kJ/mol]

    Exchange                        0.02208493 [mEh]       0.01385850 [kcal/mol]       0.05798398 [kJ/mol]
      Exch10                        0.01787524 [mEh]       0.01121688 [kcal/mol]       0.04693144 [kJ/mol]
      Exch10(S^2)                   0.01787511 [mEh]       0.01121680 [kcal/mol]       0.04693108 [kJ/mol]
      Exch11(S^2)                   0.00022731 [mEh]       0.00014264 [kcal/mol]       0.00059681 [kJ/mol]
      Exch12(S^2)                   0.00398238 [mEh]       0.00249898 [kcal/mol]       0.01045573 [kJ/mol]

    Induction                      -0.05299122 [mEh]      -0.03325249 [kcal/mol]      -0.13912843 [kJ/mol]
      Ind20,r                      -0.05360959 [mEh]      -0.03364052 [kcal/mol]      -0.14075195 [kJ/mol]
      Ind22                         0.00114961 [mEh]       0.00072139 [kcal/mol]       0.00301829 [kJ/mol]
      Exch-Ind20,r                  0.00230708 [mEh]       0.00144771 [kcal/mol]       0.00605723 [kJ/mol]
      Exch-Ind22                   -0.00004947 [mEh]      -0.00003104 [kcal/mol]      -0.00012989 [kJ/mol]
      delta HF,r (2)               -0.00278884 [mEh]      -0.00175003 [kcal/mol]      -0.00732211 [kJ/mol]

    Dispersion                     -0.30717820 [mEh]      -0.19275723 [kcal/mol]      -0.80649625 [kJ/mol]
      Disp20                       -0.29343398 [mEh]      -0.18413260 [kcal/mol]      -0.77041082 [kJ/mol]
      Disp21                        0.02793116 [mEh]       0.01752707 [kcal/mol]       0.07333326 [kJ/mol]
      Disp22 (SDQ)                  0.00739693 [mEh]       0.00464164 [kcal/mol]       0.01942064 [kJ/mol]
      Disp22 (T)                   -0.04892190 [mEh]      -0.03069896 [kcal/mol]      -0.12844444 [kJ/mol]
      Est. Disp22 (T)              -0.05145475 [mEh]      -0.03228834 [kcal/mol]      -0.13509443 [kJ/mol]
      Exch-Disp20                   0.00238244 [mEh]       0.00149500 [kcal/mol]       0.00625509 [kJ/mol]

  Total HF                         -1.28153414 [mEh]      -0.80417481 [kcal/mol]      -3.36466741 [kJ/mol]
  Total SAPT0                      -1.57258568 [mEh]      -0.98681241 [kcal/mol]      -4.12882314 [kJ/mol]
  Total SAPT2                      -1.40505655 [mEh]      -0.88168630 [kcal/mol]      -3.68897547 [kJ/mol]
  Total SAPT2+                     -1.42118321 [mEh]      -0.89180593 [kcal/mol]      -3.73131600 [kJ/mol]

  Special recipe for scaled SAPT0 (see Manual):
    Electrostatics sSAPT0          -1.24531803 [mEh]      -0.78144886 [kcal/mol]      -3.26958202 [kJ/mol]
    Exchange sSAPT0                 0.01787524 [mEh]       0.01121688 [kcal/mol]       0.04693144 [kJ/mol]
    Induction sSAPT0               -0.05409130 [mEh]      -0.03394280 [kcal/mol]      -0.14201669 [kJ/mol]
    Dispersion sSAPT0              -0.29105149 [mEh]      -0.18263757 [kcal/mol]      -0.76415558 [kJ/mol]
  Total sSAPT0                     -1.57258558 [mEh]      -0.98681235 [kcal/mol]      -4.12882286 [kJ/mol]
  --------------------------------------------------------------------------------------------------------

*** Psi4 exiting successfully. Buy a developer a beer!
