                               Psi4 1.4a2.dev224

  ==> Input File <==

--------------------------------------------------------------------------
#Generated by lconvert.py for sapt job

memory 50 GB

molecule  {
0 1
 Cl      -0.951590   -0.634070    0.000550
  C      -0.802050    1.145010   -0.005550
  H       0.246630    1.395490   -0.109290
  H      -1.376730    1.527610   -0.840160
  H      -1.196870    1.519070    0.931130
--
0 1
  O       3.209750    0.086110    0.024880
  H       4.001630   -0.426210   -0.147330
  H       2.505680   -0.569160    0.027140
units angstrom
no_reorient
symmetry c1
}

set {
scf_type DF
basis aug-cc-pvtz
freeze_core True
guess SAD
}
energy('sapt2+')
--------------------------------------------------------------------------

  //              Dimer HF             //
    Molecular point group: c1
  Charge       = 0
  Multiplicity = 1
  Basis Set: AUG-CC-PVTZ
    Blend: AUG-CC-PVTZ
  Basis Set: (AUG-CC-PVTZ AUX)
    Blend: AUG-CC-PVTZ-JKFIT
  @DF-RHF Final Energy:  -575.21150989137743
    Total Energy =                       -575.2115098913774318
  //            Monomer A HF           //
    Molecular point group: c1
  Multiplicity = 1
  Basis Set: AUG-CC-PVTZ
    Blend: AUG-CC-PVTZ
  Basis Set: (AUG-CC-PVTZ AUX)
    Blend: AUG-CC-PVTZ-JKFIT
  @DF-RHF Final Energy:  -499.14890012562387
    Total Energy =                       -499.1489001256238680
  //            Monomer B HF           //
    Molecular point group: c1

    Geometry (in Angstrom), charge = 0, multiplicity = 1:

       Center              X                  Y                   Z               Mass
    ------------   -----------------  -----------------  -----------------  -----------------
      Gh(CL)         -1.137642644432    -0.581403313755    -0.002552698898    34.968852682000
      Gh(C)          -0.988102644432     1.197676686245    -0.008652698898    12.000000000000
      Gh(H)           0.060577355568     1.448156686245    -0.112392698898     1.007825032230
      Gh(H)          -1.562782644432     1.580276686245    -0.843262698898     1.007825032230
      Gh(H)          -1.382922644432     1.571736686245     0.928027301102     1.007825032230
         O            3.023697355568     0.138776686245     0.021777301102    15.994914619570
         H            3.815577355568    -0.373543313755    -0.150432698898     1.007825032230
         H            2.319627355568    -0.516493313755     0.024037301102     1.007825032230

  Charge       = 0
  Multiplicity = 1
  Basis Set: AUG-CC-PVTZ
    Blend: AUG-CC-PVTZ
  Basis Set: (AUG-CC-PVTZ AUX)
    Blend: AUG-CC-PVTZ-JKFIT

    Orbital Energies [Eh]
    ---------------------

    Doubly Occupied:

       1A    -20.567986     2A     -1.352445     3A     -0.715074
       4A     -0.585475     5A     -0.510272

  @DF-RHF Final Energy:   -76.06035720393635

   => Energetics <=

    Nuclear Repulsion Energy =              9.1668086810225677
    One-Electron Energy =                -122.9918237012715281
    Two-Electron Energy =                  37.7646578163126065
    Total Energy =                        -76.0603572039363485

  Dipole Moment: [D]
     X:     0.1493      Y:    -1.9685      Z:    -0.2868     Total:     1.9949

    SAPT Results
  --------------------------------------------------------------------------------------------------------
    Electrostatics                 -2.04684499 [mEh]      -1.28441462 [kcal/mol]      -5.37399079 [kJ/mol]
      Elst10,r                     -2.30367863 [mEh]      -1.44558016 [kcal/mol]      -6.04830740 [kJ/mol]
      Elst12,r                      0.25683363 [mEh]       0.16116554 [kcal/mol]       0.67431661 [kJ/mol]

    Exchange                        0.30762069 [mEh]       0.19303490 [kcal/mol]       0.80765801 [kJ/mol]
      Exch10                        0.26009983 [mEh]       0.16321511 [kcal/mol]       0.68289201 [kJ/mol]
      Exch10(S^2)                   0.26007362 [mEh]       0.16319866 [kcal/mol]       0.68282319 [kJ/mol]
      Exch11(S^2)                   0.00478332 [mEh]       0.00300158 [kcal/mol]       0.01255860 [kJ/mol]
      Exch12(S^2)                   0.04273754 [mEh]       0.02681821 [kcal/mol]       0.11220740 [kJ/mol]

    Induction                      -0.21314578 [mEh]      -0.13375099 [kcal/mol]      -0.55961416 [kJ/mol]
      Ind20,r                      -0.22025909 [mEh]      -0.13821467 [kcal/mol]      -0.57829016 [kJ/mol]
      Ind22                        -0.00509775 [mEh]      -0.00319889 [kcal/mol]      -0.01338415 [kJ/mol]
      Exch-Ind20,r                  0.04039855 [mEh]       0.02535047 [kcal/mol]       0.10606638 [kJ/mol]
      Exch-Ind22                    0.00093500 [mEh]       0.00058672 [kcal/mol]       0.00245484 [kJ/mol]
      delta HF,r (2)               -0.02912248 [mEh]      -0.01827463 [kcal/mol]      -0.07646107 [kJ/mol]

    Dispersion                     -0.91161842 [mEh]      -0.57204919 [kcal/mol]      -2.39345383 [kJ/mol]
      Disp20                       -0.87368888 [mEh]      -0.54824805 [kcal/mol]      -2.29386984 [kJ/mol]
      Disp21                        0.06456358 [mEh]       0.04051426 [kcal/mol]       0.16951166 [kJ/mol]
      Disp22 (SDQ)                  0.01925641 [mEh]       0.01208358 [kcal/mol]       0.05055769 [kJ/mol]
      Disp22 (T)                   -0.13850445 [mEh]      -0.08691285 [kcal/mol]      -0.36364337 [kJ/mol]
      Est. Disp22 (T)              -0.15019752 [mEh]      -0.09425037 [kcal/mol]      -0.39434354 [kJ/mol]
      Exch-Disp20                   0.02844800 [mEh]       0.01785139 [kcal/mol]       0.07469021 [kJ/mol]

  Total HF                         -2.25256182 [mEh]      -1.41350388 [kcal/mol]      -5.91410024 [kJ/mol]
  Total SAPT0                      -3.09780270 [mEh]      -1.94390054 [kcal/mol]      -8.13327987 [kJ/mol]
  Total SAPT2                      -2.79761096 [mEh]      -1.75552738 [kcal/mol]      -7.34512657 [kJ/mol]
  Total SAPT2+                     -2.86398850 [mEh]      -1.79717992 [kcal/mol]      -7.51940077 [kJ/mol]

  Special recipe for scaled SAPT0 (see Manual):
    Electrostatics sSAPT0          -2.30367863 [mEh]      -1.44558016 [kcal/mol]      -6.04830740 [kJ/mol]
    Exchange sSAPT0                 0.26009983 [mEh]       0.16321511 [kcal/mol]       0.68289201 [kJ/mol]
    Induction sSAPT0               -0.20897081 [mEh]      -0.13113116 [kcal/mol]      -0.54865277 [kJ/mol]
    Dispersion sSAPT0              -0.84523228 [mEh]      -0.53039126 [kcal/mol]      -2.21915704 [kJ/mol]
  Total sSAPT0                     -3.09778188 [mEh]      -1.94388748 [kcal/mol]      -8.13322520 [kJ/mol]
  --------------------------------------------------------------------------------------------------------

*** Psi4 exiting successfully. Buy a developer a beer!
