                               Psi4 1.4a2.dev224

  ==> Input File <==

--------------------------------------------------------------------------
#Generated by lconvert.py for sapt job

memory 50 GB

molecule  {
0 1
 Cl      -0.951590   -0.634070    0.000550
  C      -0.802050    1.145010   -0.005550
  H       0.246630    1.395490   -0.109290
  H      -1.376730    1.527610   -0.840160
  H      -1.196870    1.519070    0.931130
--
0 1
  O       4.660630    0.123080    0.030750
  H       5.452510   -0.389240   -0.141460
  H       3.956550   -0.532190    0.033000
units angstrom
no_reorient
symmetry c1
}

set {
scf_type DF
basis aug-cc-pvtz
freeze_core True
guess SAD
}
energy('sapt2+')
--------------------------------------------------------------------------

  //              Dimer HF             //
    Molecular point group: c1
  Charge       = 0
  Multiplicity = 1
  Basis Set: AUG-CC-PVTZ
    Blend: AUG-CC-PVTZ
  Basis Set: (AUG-CC-PVTZ AUX)
    Blend: AUG-CC-PVTZ-JKFIT
  @DF-RHF Final Energy:  -575.20999784919854
    Total Energy =                       -575.2099978491985439
  //            Monomer A HF           //
    Molecular point group: c1
  Multiplicity = 1
  Basis Set: AUG-CC-PVTZ
    Blend: AUG-CC-PVTZ
  Basis Set: (AUG-CC-PVTZ AUX)
    Blend: AUG-CC-PVTZ-JKFIT
  @DF-RHF Final Energy:  -499.14888138135234
    Total Energy =                       -499.1488813813523393
  //            Monomer B HF           //
    Molecular point group: c1

    Geometry (in Angstrom), charge = 0, multiplicity = 1:

       Center              X                  Y                   Z               Mass
    ------------   -----------------  -----------------  -----------------  -----------------
      Gh(CL)         -1.521908034685    -0.591194817502    -0.004107220075    34.968852682000
      Gh(C)          -1.372368034685     1.187885182498    -0.010207220075    12.000000000000
      Gh(H)          -0.323688034685     1.438365182498    -0.113947220075     1.007825032230
      Gh(H)          -1.947048034685     1.570485182498    -0.844817220075     1.007825032230
      Gh(H)          -1.767188034685     1.561945182498     0.926472779925     1.007825032230
         O            4.090311965315     0.165955182498     0.026092779925    15.994914619570
         H            4.882191965315    -0.346364817502    -0.146117220075     1.007825032230
         H            3.386231965315    -0.489314817502     0.028342779925     1.007825032230

  Charge       = 0
  Multiplicity = 1
  Basis Set: AUG-CC-PVTZ
    Blend: AUG-CC-PVTZ
  Basis Set: (AUG-CC-PVTZ AUX)
    Blend: AUG-CC-PVTZ-JKFIT

    Orbital Energies [Eh]
    ---------------------

    Doubly Occupied:

       1A    -20.567992     2A     -1.352448     3A     -0.715075
       4A     -0.585477     5A     -0.510279

  @DF-RHF Final Energy:   -76.06034465424014

   => Energetics <=

    Nuclear Repulsion Energy =              9.1667732703746587
    One-Electron Energy =                -122.9916902841319200
    Two-Electron Energy =                  37.7645723595171177
    Total Energy =                        -76.0603446542401400

  Dipole Moment: [D]
     X:     0.1493      Y:    -1.9683      Z:    -0.2868     Total:     1.9947

    SAPT Results
  --------------------------------------------------------------------------------------------------------
    Electrostatics                 -0.64952122 [mEh]      -0.40758072 [kcal/mol]      -1.70531772 [kJ/mol]
      Elst10,r                     -0.75426066 [mEh]      -0.47330571 [kcal/mol]      -1.98031110 [kJ/mol]
      Elst12,r                      0.10473945 [mEh]       0.06572499 [kcal/mol]       0.27499338 [kJ/mol]

    Exchange                        0.00148904 [mEh]       0.00093439 [kcal/mol]       0.00390947 [kJ/mol]
      Exch10                        0.00115379 [mEh]       0.00072402 [kcal/mol]       0.00302928 [kJ/mol]
      Exch10(S^2)                   0.00115379 [mEh]       0.00072402 [kcal/mol]       0.00302928 [kJ/mol]
      Exch11(S^2)                   0.00000935 [mEh]       0.00000587 [kcal/mol]       0.00002454 [kJ/mol]
      Exch12(S^2)                   0.00032590 [mEh]       0.00020451 [kcal/mol]       0.00085565 [kJ/mol]

    Induction                      -0.01793787 [mEh]      -0.01125618 [kcal/mol]      -0.04709586 [kJ/mol]
      Ind20,r                      -0.01840329 [mEh]      -0.01154824 [kcal/mol]      -0.04831783 [kJ/mol]
      Ind22                         0.00077426 [mEh]       0.00048586 [kcal/mol]       0.00203282 [kJ/mol]
      Exch-Ind20,r                  0.00012816 [mEh]       0.00008042 [kcal/mol]       0.00033648 [kJ/mol]
      Exch-Ind22                   -0.00000539 [mEh]      -0.00000338 [kcal/mol]      -0.00001416 [kJ/mol]
      delta HF,r (2)               -0.00043161 [mEh]      -0.00027084 [kcal/mol]      -0.00113318 [kJ/mol]

    Dispersion                     -0.12212130 [mEh]      -0.07663227 [kcal/mol]      -0.32062942 [kJ/mol]
      Disp20                       -0.11788758 [mEh]      -0.07397557 [kcal/mol]      -0.30951379 [kJ/mol]
      Disp21                        0.01314807 [mEh]       0.00825054 [kcal/mol]       0.03452026 [kJ/mol]
      Disp22 (SDQ)                  0.00328478 [mEh]       0.00206123 [kcal/mol]       0.00862418 [kJ/mol]
      Disp22 (T)                   -0.02012480 [mEh]      -0.01262850 [kcal/mol]      -0.05283764 [kJ/mol]
      Est. Disp22 (T)              -0.02085186 [mEh]      -0.01308474 [kcal/mol]      -0.05474655 [kJ/mol]
      Exch-Disp20                   0.00018529 [mEh]       0.00011627 [kcal/mol]       0.00048648 [kJ/mol]

  Total HF                         -0.77181361 [mEh]      -0.48432035 [kcal/mol]      -2.02639634 [kJ/mol]
  Total SAPT0                      -0.88951589 [mEh]      -0.55817965 [kcal/mol]      -2.33542366 [kJ/mol]
  Total SAPT2                      -0.78367233 [mEh]      -0.49176181 [kcal/mol]      -2.05753142 [kJ/mol]
  Total SAPT2+                     -0.78809134 [mEh]      -0.49453478 [kcal/mol]      -2.06913353 [kJ/mol]

  Special recipe for scaled SAPT0 (see Manual):
    Electrostatics sSAPT0          -0.75426066 [mEh]      -0.47330571 [kcal/mol]      -1.98031110 [kJ/mol]
    Exchange sSAPT0                 0.00115379 [mEh]       0.00072402 [kcal/mol]       0.00302928 [kJ/mol]
    Induction sSAPT0               -0.01870674 [mEh]      -0.01173865 [kcal/mol]      -0.04911453 [kJ/mol]
    Dispersion sSAPT0              -0.11770229 [mEh]      -0.07385930 [kcal/mol]      -0.30902731 [kJ/mol]
  Total sSAPT0                     -0.88951589 [mEh]      -0.55817965 [kcal/mol]      -2.33542366 [kJ/mol]
  --------------------------------------------------------------------------------------------------------

*** Psi4 exiting successfully. Buy a developer a beer!
