                               Psi4 1.4a2.dev224

  ==> Input File <==

--------------------------------------------------------------------------
#Generated by lconvert.py for sapt job

memory 50 GB

molecule  {
0 1
 Cl       2.111710   -0.538820    0.000180
  C       1.762530    1.209210    0.000110
  H       0.687620    1.343580    0.000120
  H       2.201980    1.643830   -0.889660
  H       2.202010    1.643910    0.889830
--
0 1
 Cl      -3.105960    0.538040    0.000200
  C      -2.757050   -1.210040    0.000120
  H      -3.196690   -1.644610   -0.889580
  H      -3.196470   -1.644650    0.889910
  H      -1.682160   -1.344600   -0.000010
units angstrom
no_reorient
symmetry c1
}

set {
scf_type DF
basis aug-cc-pvtz
freeze_core True
guess SAD
}
energy('sapt2+')
--------------------------------------------------------------------------

  //              Dimer HF             //
    Molecular point group: c1
  Charge       = 0
  Multiplicity = 1
  Basis Set: AUG-CC-PVTZ
    Blend: AUG-CC-PVTZ
  Basis Set: (AUG-CC-PVTZ AUX)
    Blend: AUG-CC-PVTZ-JKFIT
  @DF-RHF Final Energy:  -998.29906846395886
    Total Energy =                       -998.2990684639588608
  //            Monomer A HF           //
    Molecular point group: c1
  Multiplicity = 1
  Basis Set: AUG-CC-PVTZ
    Blend: AUG-CC-PVTZ
  Basis Set: (AUG-CC-PVTZ AUX)
    Blend: AUG-CC-PVTZ-JKFIT
  @DF-RHF Final Energy:  -499.14889190755127
    Total Energy =                       -499.1488919075512740
  //            Monomer B HF           //
    Molecular point group: c1

    Geometry (in Angstrom), charge = 0, multiplicity = 1:

       Center              X                  Y                   Z               Mass
    ------------   -----------------  -----------------  -----------------  -----------------
      Gh(CL)          2.608877081577    -0.538421983120     0.000013345055    34.968852682000
      Gh(C)           2.259697081577     1.209608016880    -0.000056654945    12.000000000000
      Gh(H)           1.184787081577     1.343978016880    -0.000046654945     1.007825032230
      Gh(H)           2.699147081577     1.644228016880    -0.889826654945     1.007825032230
      Gh(H)           2.699177081577     1.644308016880     0.889663345055     1.007825032230
         CL          -2.608792918423     0.538438016880     0.000033345055    34.968852682000
         C           -2.259882918423    -1.209641983120    -0.000046654945    12.000000000000
         H           -2.699522918423    -1.644211983120    -0.889746654945     1.007825032230
         H           -2.699302918423    -1.644251983120     0.889743345055     1.007825032230
         H           -1.184992918423    -1.344201983120    -0.000176654945     1.007825032230

  Charge       = 0
  Multiplicity = 1
  Basis Set: AUG-CC-PVTZ
    Blend: AUG-CC-PVTZ
  Basis Set: (AUG-CC-PVTZ AUX)
    Blend: AUG-CC-PVTZ-JKFIT

    Orbital Energies [Eh]
    ---------------------

    Doubly Occupied:

       1A   -104.826143     2A    -11.290086     3A    -10.550439
       4A     -8.017345     5A     -8.015479     6A     -8.015477
       7A     -1.128216     8A     -0.915796     9A     -0.619436
      10A     -0.618923    11A     -0.545417    12A     -0.435735
      13A     -0.435597

  @DF-RHF Final Energy:  -499.14889190073490

   => Energetics <=

    Nuclear Repulsion Energy =             51.4026550895585430
    One-Electron Energy =                -790.2749176638581048
    Two-Electron Energy =                 239.7233706735647161
    Total Energy =                       -499.1488919007348954

  Dipole Moment: [D]
     X:     0.4168      Y:    -2.0961      Z:    -0.0001     Total:     2.1372

    SAPT Results
  --------------------------------------------------------------------------------------------------------
    Electrostatics                 -1.13940112 [mEh]      -0.71498500 [kcal/mol]      -2.99149722 [kJ/mol]
      Elst10,r                     -1.32084822 [mEh]      -0.82884477 [kcal/mol]      -3.46788651 [kJ/mol]
      Elst12,r                      0.18144710 [mEh]       0.11385977 [kcal/mol]       0.47638929 [kJ/mol]

    Exchange                        0.15199325 [mEh]       0.09537720 [kcal/mol]       0.39905821 [kJ/mol]
      Exch10                        0.13515261 [mEh]       0.08480954 [kcal/mol]       0.35484312 [kJ/mol]
      Exch10(S^2)                   0.13514673 [mEh]       0.08480585 [kcal/mol]       0.35482769 [kJ/mol]
      Exch11(S^2)                   0.00268602 [mEh]       0.00168550 [kcal/mol]       0.00705213 [kJ/mol]
      Exch12(S^2)                   0.01415462 [mEh]       0.00888216 [kcal/mol]       0.03716296 [kJ/mol]

    Induction                      -0.09727035 [mEh]      -0.06103807 [kcal/mol]      -0.25538328 [kJ/mol]
      Ind20,r                      -0.10094174 [mEh]      -0.06334190 [kcal/mol]      -0.26502251 [kJ/mol]
      Ind22                         0.00202798 [mEh]       0.00127257 [kcal/mol]       0.00532445 [kJ/mol]
      Exch-Ind20,r                  0.01683695 [mEh]       0.01056535 [kcal/mol]       0.04420541 [kJ/mol]
      Exch-Ind22                   -0.00033826 [mEh]      -0.00021226 [kcal/mol]      -0.00088811 [kJ/mol]
      delta HF,r (2)               -0.01485527 [mEh]      -0.00932183 [kcal/mol]      -0.03900252 [kJ/mol]

    Dispersion                     -0.84171350 [mEh]      -0.52818320 [kcal/mol]      -2.20991850 [kJ/mol]
      Disp20                       -0.85660242 [mEh]      -0.53752613 [kcal/mol]      -2.24900934 [kJ/mol]
      Disp21                        0.10043284 [mEh]       0.06302256 [kcal/mol]       0.26368638 [kJ/mol]
      Disp22 (SDQ)                  0.03666964 [mEh]       0.02301054 [kcal/mol]       0.09627612 [kJ/mol]
      Disp22 (T)                   -0.13221925 [mEh]      -0.08296883 [kcal/mol]      -0.34714158 [kJ/mol]
      Est. Disp22 (T)              -0.13997260 [mEh]      -0.08783413 [kcal/mol]      -0.36749800 [kJ/mol]
      Exch-Disp20                   0.01775904 [mEh]       0.01114396 [kcal/mol]       0.04662634 [kJ/mol]

  Total HF                         -1.28465567 [mEh]      -0.80613361 [kcal/mol]      -3.37286300 [kJ/mol]
  Total SAPT0                      -2.12349906 [mEh]      -1.33251578 [kcal/mol]      -5.57524600 [kJ/mol]
  Total SAPT2                      -1.92352161 [mEh]      -1.20702803 [kcal/mol]      -5.05020528 [kJ/mol]
  Total SAPT2+                     -1.92639173 [mEh]      -1.20882906 [kcal/mol]      -5.05774078 [kJ/mol]

  Special recipe for scaled SAPT0 (see Manual):
    Electrostatics sSAPT0          -1.32084822 [mEh]      -0.82884477 [kcal/mol]      -3.46788651 [kJ/mol]
    Exchange sSAPT0                 0.13515261 [mEh]       0.08480954 [kcal/mol]       0.35484312 [kJ/mol]
    Induction sSAPT0               -0.09895787 [mEh]      -0.06209700 [kcal/mol]      -0.25981385 [kJ/mol]
    Dispersion sSAPT0              -0.83884107 [mEh]      -0.52638072 [kcal/mol]      -2.20237692 [kJ/mol]
  Total sSAPT0                     -2.12349454 [mEh]      -1.33251294 [kcal/mol]      -5.57523415 [kJ/mol]
  --------------------------------------------------------------------------------------------------------

*** Psi4 exiting successfully. Buy a developer a beer!
