                               Psi4 1.4a2.dev224

  ==> Input File <==

--------------------------------------------------------------------------
#Generated by lconvert.py for sapt job

memory 50 GB

molecule  {
0 1
 Cl       2.111710   -0.538820    0.000180
  C       1.762530    1.209210    0.000110
  H       0.687620    1.343580    0.000120
  H       2.201980    1.643830   -0.889660
  H       2.202010    1.643910    0.889830
--
0 1
 Cl      -4.985310    0.536420    0.000210
  C      -4.636400   -1.211660    0.000130
  H      -5.076040   -1.646230   -0.889580
  H      -5.075820   -1.646270    0.889920
  H      -3.561510   -1.346220   -0.000010
units angstrom
no_reorient
symmetry c1
}

set {
scf_type DF
basis aug-cc-pvtz
freeze_core True
guess SAD
}
energy('sapt2+')
--------------------------------------------------------------------------

  //              Dimer HF             //
    Molecular point group: c1
  Charge       = 0
  Multiplicity = 1
  Basis Set: AUG-CC-PVTZ
    Blend: AUG-CC-PVTZ
  Basis Set: (AUG-CC-PVTZ AUX)
    Blend: AUG-CC-PVTZ-JKFIT
  @DF-RHF Final Energy:  -998.29816290416818
    Total Energy =                       -998.2981629041681799
  //            Monomer A HF           //
    Molecular point group: c1
  Multiplicity = 1
  Basis Set: AUG-CC-PVTZ
    Blend: AUG-CC-PVTZ
  Basis Set: (AUG-CC-PVTZ AUX)
    Blend: AUG-CC-PVTZ-JKFIT
  @DF-RHF Final Energy:  -499.14887514672228
    Total Energy =                       -499.1488751467222755
  //            Monomer B HF           //
    Molecular point group: c1

    Geometry (in Angstrom), charge = 0, multiplicity = 1:

       Center              X                  Y                   Z               Mass
    ------------   -----------------  -----------------  -----------------  -----------------
      Gh(CL)          3.548552081577    -0.537611983120     0.000008546651    34.968852682000
      Gh(C)           3.199372081577     1.210418016880    -0.000061453349    12.000000000000
      Gh(H)           2.124462081577     1.344788016880    -0.000051453349     1.007825032230
      Gh(H)           3.638822081577     1.645038016880    -0.889831453349     1.007825032230
      Gh(H)           3.638852081577     1.645118016880     0.889658546651     1.007825032230
         CL          -3.548467918423     0.537628016880     0.000038546651    34.968852682000
         C           -3.199557918423    -1.210451983120    -0.000041453349    12.000000000000
         H           -3.639197918423    -1.645021983120    -0.889751453349     1.007825032230
         H           -3.638977918423    -1.645061983120     0.889748546651     1.007825032230
         H           -2.124667918423    -1.345011983120    -0.000181453349     1.007825032230

  Charge       = 0
  Multiplicity = 1
  Basis Set: AUG-CC-PVTZ
    Blend: AUG-CC-PVTZ
  Basis Set: (AUG-CC-PVTZ AUX)
    Blend: AUG-CC-PVTZ-JKFIT

    Orbital Energies [Eh]
    ---------------------

    Doubly Occupied:

       1A   -104.826145     2A    -11.290098     3A    -10.550459
       4A     -8.017364     5A     -8.015498     6A     -8.015498
       7A     -1.128234     8A     -0.915809     9A     -0.619445
      10A     -0.618935    11A     -0.545434    12A     -0.435737
      13A     -0.435616

  @DF-RHF Final Energy:  -499.14887505585136

   => Energetics <=

    Nuclear Repulsion Energy =             51.4026242665719053
    One-Electron Energy =                -790.2744525221742151
    Two-Electron Energy =                 239.7229531997508900
    Total Energy =                       -499.1488750558513630

  Dipole Moment: [D]
     X:     0.4164      Y:    -2.0965      Z:    -0.0001     Total:     2.1375

    SAPT Results
  --------------------------------------------------------------------------------------------------------
    Electrostatics                 -0.33780620 [mEh]      -0.21197659 [kcal/mol]      -0.88691004 [kJ/mol]
      Elst10,r                     -0.40452417 [mEh]      -0.25384275 [kcal/mol]      -1.06207807 [kJ/mol]
      Elst12,r                      0.06671798 [mEh]       0.04186616 [kcal/mol]       0.17516803 [kJ/mol]

    Exchange                        0.00020921 [mEh]       0.00013128 [kcal/mol]       0.00054929 [kJ/mol]
      Exch10                        0.00017103 [mEh]       0.00010732 [kcal/mol]       0.00044904 [kJ/mol]
      Exch10(S^2)                   0.00017103 [mEh]       0.00010732 [kcal/mol]       0.00044904 [kJ/mol]
      Exch11(S^2)                  -0.00000204 [mEh]      -0.00000128 [kcal/mol]      -0.00000535 [kJ/mol]
      Exch12(S^2)                   0.00004022 [mEh]       0.00002524 [kcal/mol]       0.00010561 [kJ/mol]

    Induction                      -0.00764631 [mEh]      -0.00479813 [kcal/mol]      -0.02007539 [kJ/mol]
      Ind20,r                      -0.00808444 [mEh]      -0.00507306 [kcal/mol]      -0.02122569 [kJ/mol]
      Ind22                         0.00070320 [mEh]       0.00044126 [kcal/mol]       0.00184625 [kJ/mol]
      Exch-Ind20,r                  0.00001221 [mEh]       0.00000766 [kcal/mol]       0.00003206 [kJ/mol]
      Exch-Ind22                   -0.00000106 [mEh]      -0.00000067 [kcal/mol]      -0.00000279 [kJ/mol]
      delta HF,r (2)               -0.00027622 [mEh]      -0.00017333 [kcal/mol]      -0.00072522 [kJ/mol]

    Dispersion                     -0.09760407 [mEh]      -0.06124748 [kcal/mol]      -0.25625945 [kJ/mol]
      Disp20                       -0.10286531 [mEh]      -0.06454896 [kcal/mol]      -0.27007284 [kJ/mol]
      Disp21                        0.01788952 [mEh]       0.01122584 [kcal/mol]       0.04696893 [kJ/mol]
      Disp22 (SDQ)                  0.00447288 [mEh]       0.00280677 [kcal/mol]       0.01174354 [kJ/mol]
      Disp22 (T)                   -0.01674308 [mEh]      -0.01050644 [kcal/mol]      -0.04395894 [kJ/mol]
      Est. Disp22 (T)              -0.01713505 [mEh]      -0.01075241 [kcal/mol]      -0.04498807 [kJ/mol]
      Exch-Disp20                   0.00003390 [mEh]       0.00002127 [kcal/mol]       0.00008900 [kJ/mol]

  Total HF                         -0.41270159 [mEh]      -0.25897416 [kcal/mol]      -1.08354789 [kJ/mol]
  Total SAPT0                      -0.51553301 [mEh]      -0.32350185 [kcal/mol]      -1.35353173 [kJ/mol]
  Total SAPT2                      -0.44807471 [mEh]      -0.28117113 [kcal/mol]      -1.17642000 [kJ/mol]
  Total SAPT2+                     -0.44284737 [mEh]      -0.27789092 [kcal/mol]      -1.16269560 [kJ/mol]

  Special recipe for scaled SAPT0 (see Manual):
    Electrostatics sSAPT0          -0.40452417 [mEh]      -0.25384275 [kcal/mol]      -1.06207807 [kJ/mol]
    Exchange sSAPT0                 0.00017103 [mEh]       0.00010732 [kcal/mol]       0.00044904 [kJ/mol]
    Induction sSAPT0               -0.00834845 [mEh]      -0.00523873 [kcal/mol]      -0.02191885 [kJ/mol]
    Dispersion sSAPT0              -0.10283142 [mEh]      -0.06452769 [kcal/mol]      -0.26998385 [kJ/mol]
  Total sSAPT0                     -0.51553301 [mEh]      -0.32350185 [kcal/mol]      -1.35353173 [kJ/mol]
  --------------------------------------------------------------------------------------------------------

*** Psi4 exiting successfully. Buy a developer a beer!
