                               Psi4 1.4a2.dev224

  ==> Input File <==

--------------------------------------------------------------------------
#Generated by lconvert.py for sapt job

memory 50 GB

molecule  {
0 1
 Cl       2.111710   -0.538820    0.000180
  C       1.762530    1.209210    0.000110
  H       0.687620    1.343580    0.000120
  H       2.201980    1.643830   -0.889660
  H       2.202010    1.643910    0.889830
--
0 1
 Cl      -4.045630    0.537230    0.000200
  C      -3.696720   -1.210850    0.000120
  H      -4.136370   -1.645420   -0.889580
  H      -4.136150   -1.645460    0.889910
  H      -2.621840   -1.345410   -0.000010
units angstrom
no_reorient
symmetry c1
}

set {
scf_type DF
basis aug-cc-pvtz
freeze_core True
guess SAD
}
energy('sapt2+')
--------------------------------------------------------------------------

  //              Dimer HF             //
    Molecular point group: c1
  Charge       = 0
  Multiplicity = 1
  Basis Set: AUG-CC-PVTZ
    Blend: AUG-CC-PVTZ
  Basis Set: (AUG-CC-PVTZ AUX)
    Blend: AUG-CC-PVTZ-JKFIT
  @DF-RHF Final Energy:  -998.29846040808434
    Total Energy =                       -998.2984604080843383
  //            Monomer A HF           //
    Molecular point group: c1
  Multiplicity = 1
  Basis Set: AUG-CC-PVTZ
    Blend: AUG-CC-PVTZ
  Basis Set: (AUG-CC-PVTZ AUX)
    Blend: AUG-CC-PVTZ-JKFIT
  @DF-RHF Final Energy:  -499.14887851767753
    Total Energy =                       -499.1488785176775309
  //            Monomer B HF           //
    Molecular point group: c1

    Geometry (in Angstrom), charge = 0, multiplicity = 1:

       Center              X                  Y                   Z               Mass
    ------------   -----------------  -----------------  -----------------  -----------------
      Gh(CL)          3.078712383971    -0.538016983120     0.000013345055    34.968852682000
      Gh(C)           2.729532383971     1.210013016880    -0.000056654945    12.000000000000
      Gh(H)           1.654622383971     1.344383016880    -0.000046654945     1.007825032230
      Gh(H)           3.168982383971     1.644633016880    -0.889826654945     1.007825032230
      Gh(H)           3.169012383971     1.644713016880     0.889663345055     1.007825032230
         CL          -3.078627616029     0.538033016880     0.000033345055    34.968852682000
         C           -2.729717616029    -1.210046983120    -0.000046654945    12.000000000000
         H           -3.169367616029    -1.644616983120    -0.889746654945     1.007825032230
         H           -3.169147616029    -1.644656983120     0.889743345055     1.007825032230
         H           -1.654837616029    -1.344606983120    -0.000176654945     1.007825032230

  Charge       = 0
  Multiplicity = 1
  Basis Set: AUG-CC-PVTZ
    Blend: AUG-CC-PVTZ
  Basis Set: (AUG-CC-PVTZ AUX)
    Blend: AUG-CC-PVTZ-JKFIT

    Orbital Energies [Eh]
    ---------------------

    Doubly Occupied:

       1A   -104.826145     2A    -11.290095     3A    -10.550455
       4A     -8.017360     5A     -8.015495     6A     -8.015495
       7A     -1.128231     8A     -0.915808     9A     -0.619447
      10A     -0.618932    11A     -0.545431    12A     -0.435736
      13A     -0.435613

  @DF-RHF Final Energy:  -499.14887851346134

   => Energetics <=

    Nuclear Repulsion Energy =             51.4026684837039198
    One-Electron Energy =                -790.2746056192087281
    Two-Electron Energy =                 239.7230586220434816
    Total Energy =                       -499.1488785134613408

  Dipole Moment: [D]
     X:     0.4162      Y:    -2.0965      Z:    -0.0001     Total:     2.1374

    SAPT Results
  --------------------------------------------------------------------------------------------------------
    Electrostatics                 -0.57707811 [mEh]      -0.36212198 [kcal/mol]      -1.51511836 [kJ/mol]
      Elst10,r                     -0.68412198 [mEh]      -0.42929302 [kcal/mol]      -1.79616200 [kJ/mol]
      Elst12,r                      0.10704387 [mEh]       0.06717104 [kcal/mol]       0.28104364 [kJ/mol]

    Exchange                        0.00577651 [mEh]       0.00362481 [kcal/mol]       0.01516622 [kJ/mol]
      Exch10                        0.00491958 [mEh]       0.00308709 [kcal/mol]       0.01291637 [kJ/mol]
      Exch10(S^2)                   0.00491958 [mEh]       0.00308708 [kcal/mol]       0.01291635 [kJ/mol]
      Exch11(S^2)                   0.00001788 [mEh]       0.00001122 [kcal/mol]       0.00004695 [kJ/mol]
      Exch12(S^2)                   0.00083904 [mEh]       0.00052651 [kcal/mol]       0.00220291 [kJ/mol]

    Induction                      -0.02256435 [mEh]      -0.01415935 [kcal/mol]      -0.05924270 [kJ/mol]
      Ind20,r                      -0.02344716 [mEh]      -0.01471332 [kcal/mol]      -0.06156052 [kJ/mol]
      Ind22                         0.00164273 [mEh]       0.00103083 [kcal/mol]       0.00431300 [kJ/mol]
      Exch-Ind20,r                  0.00046435 [mEh]       0.00029138 [kcal/mol]       0.00121915 [kJ/mol]
      Exch-Ind22                   -0.00003253 [mEh]      -0.00002041 [kcal/mol]      -0.00008542 [kJ/mol]
      delta HF,r (2)               -0.00119174 [mEh]      -0.00074783 [kcal/mol]      -0.00312892 [kJ/mol]

    Dispersion                     -0.25825042 [mEh]      -0.16205459 [kcal/mol]      -0.67803639 [kJ/mol]
      Disp20                       -0.26708087 [mEh]      -0.16759577 [kcal/mol]      -0.70122072 [kJ/mol]
      Disp21                        0.04057167 [mEh]       0.02545911 [kcal/mol]       0.10652091 [kJ/mol]
      Disp22 (SDQ)                  0.01154991 [mEh]       0.00724768 [kcal/mol]       0.03032428 [kJ/mol]
      Disp22 (T)                   -0.04236768 [mEh]      -0.02658612 [kcal/mol]      -0.11123633 [kJ/mol]
      Est. Disp22 (T)              -0.04411949 [mEh]      -0.02768540 [kcal/mol]      -0.11583571 [kJ/mol]
      Exch-Disp20                   0.00082836 [mEh]       0.00051980 [kcal/mol]       0.00217485 [kJ/mol]

  Total HF                         -0.70337695 [mEh]      -0.44137570 [kcal/mol]      -1.84671592 [kJ/mol]
  Total SAPT0                      -0.96962945 [mEh]      -0.60845167 [kcal/mol]      -2.54576178 [kJ/mol]
  Total SAPT2                      -0.86011846 [mEh]      -0.53973248 [kcal/mol]      -2.25824070 [kJ/mol]
  Total SAPT2+                     -0.85211637 [mEh]      -0.53471110 [kcal/mol]      -2.23723123 [kJ/mol]

  Special recipe for scaled SAPT0 (see Manual):
    Electrostatics sSAPT0          -0.68412198 [mEh]      -0.42929302 [kcal/mol]      -1.79616200 [kJ/mol]
    Exchange sSAPT0                 0.00491958 [mEh]       0.00308709 [kcal/mol]       0.01291637 [kJ/mol]
    Induction sSAPT0               -0.02417455 [mEh]      -0.01516976 [kcal/mol]      -0.06347028 [kJ/mol]
    Dispersion sSAPT0              -0.26625251 [mEh]      -0.16707597 [kcal/mol]      -0.69904587 [kJ/mol]
  Total sSAPT0                     -0.96962945 [mEh]      -0.60845167 [kcal/mol]      -2.54576178 [kJ/mol]
  --------------------------------------------------------------------------------------------------------

*** Psi4 exiting successfully. Buy a developer a beer!
