                               Psi4 1.4a2.dev224

  ==> Input File <==

--------------------------------------------------------------------------
#Generated by lconvert.py for sapt job

memory 50 GB

molecule  {
0 1
 Cl      -1.010160    0.000010    0.000000
  C      -2.790220    0.000020    0.000000
  H      -3.133660    1.027430    0.000000
  H      -3.133670   -0.513670    0.889750
  H      -3.133670   -0.513670   -0.889750
--
0 1
 Cl       6.441890    0.000020    0.000000
  C       4.661950    0.000020    0.000000
  H       4.315780    1.026630    0.000000
  H       4.315780   -0.513280    0.889070
  H       4.315780   -0.513280   -0.889070
units angstrom
no_reorient
symmetry c1
}

set {
scf_type DF
basis aug-cc-pvtz
freeze_core True
guess SAD
}
energy('sapt2+')
--------------------------------------------------------------------------

  //              Dimer HF             //
    Molecular point group: c1
  Charge       = 0
  Multiplicity = 1
  Basis Set: AUG-CC-PVTZ
    Blend: AUG-CC-PVTZ
  Basis Set: (AUG-CC-PVTZ AUX)
    Blend: AUG-CC-PVTZ-JKFIT
  @DF-RHF Final Energy:  -998.29813978258721
    Total Energy =                       -998.2981397825872136
  //            Monomer A HF           //
    Molecular point group: c1
  Multiplicity = 1
  Basis Set: AUG-CC-PVTZ
    Blend: AUG-CC-PVTZ
  Basis Set: (AUG-CC-PVTZ AUX)
    Blend: AUG-CC-PVTZ-JKFIT
  @DF-RHF Final Energy:  -499.14887106800973
    Total Energy =                       -499.1488710680097256
  //            Monomer B HF           //
    Molecular point group: c1

    Geometry (in Angstrom), charge = 0, multiplicity = 1:

       Center              X                  Y                   Z               Mass
    ------------   -----------------  -----------------  -----------------  -----------------
      Gh(CL)         -3.170253618358    -0.000006905770     0.000000000000    34.968852682000
      Gh(C)          -4.950313618358     0.000003094230     0.000000000000    12.000000000000
      Gh(H)          -5.293753618358     1.027413094230     0.000000000000     1.007825032230
      Gh(H)          -5.293763618358    -0.513686905770     0.889750000000     1.007825032230
      Gh(H)          -5.293763618358    -0.513686905770    -0.889750000000     1.007825032230
         CL           4.281796381642     0.000003094230     0.000000000000    34.968852682000
         C            2.501856381642     0.000003094230     0.000000000000    12.000000000000
         H            2.155686381642     1.026613094230     0.000000000000     1.007825032230
         H            2.155686381642    -0.513296905770     0.889070000000     1.007825032230
         H            2.155686381642    -0.513296905770    -0.889070000000     1.007825032230

  Charge       = 0
  Multiplicity = 1
  Basis Set: AUG-CC-PVTZ
    Blend: AUG-CC-PVTZ
  Basis Set: (AUG-CC-PVTZ AUX)
    Blend: AUG-CC-PVTZ-JKFIT

    Orbital Energies [Eh]
    ---------------------

    Doubly Occupied:

       1A   -104.826520     2A    -11.289709     3A    -10.550845
       4A     -8.017755     5A     -8.015883     6A     -8.015883
       7A     -1.128875     8A     -0.915879     9A     -0.618638
      10A     -0.618636    11A     -0.546698    12A     -0.435796
      13A     -0.435796

  @DF-RHF Final Energy:  -499.14885469980618

   => Energetics <=

    Nuclear Repulsion Energy =             51.4402189613570826
    One-Electron Energy =                -790.3443208261576274
    Two-Electron Energy =                 239.7552471649943300
    Total Energy =                       -499.1488546998061793

  Dipole Moment: [D]
     X:    -2.1260      Y:     0.0000      Z:    -0.0000     Total:     2.1260

    SAPT Results
  --------------------------------------------------------------------------------------------------------
    Electrostatics                 -0.31629113 [mEh]      -0.19847568 [kcal/mol]      -0.83042224 [kJ/mol]
      Elst10,r                     -0.40145295 [mEh]      -0.25191553 [kcal/mol]      -1.05401456 [kJ/mol]
      Elst12,r                      0.08516182 [mEh]       0.05343985 [kcal/mol]       0.22359232 [kJ/mol]

    Exchange                        0.00050523 [mEh]       0.00031703 [kcal/mol]       0.00132647 [kJ/mol]
      Exch10                        0.00042010 [mEh]       0.00026362 [kcal/mol]       0.00110298 [kJ/mol]
      Exch10(S^2)                   0.00042010 [mEh]       0.00026362 [kcal/mol]       0.00110298 [kJ/mol]
      Exch11(S^2)                   0.00000803 [mEh]       0.00000504 [kcal/mol]       0.00002109 [kJ/mol]
      Exch12(S^2)                   0.00007709 [mEh]       0.00004838 [kcal/mol]       0.00020240 [kJ/mol]

    Induction                      -0.01118425 [mEh]      -0.00701822 [kcal/mol]      -0.02936423 [kJ/mol]
      Ind20,r                      -0.01249475 [mEh]      -0.00784058 [kcal/mol]      -0.03280497 [kJ/mol]
      Ind22                         0.00180496 [mEh]       0.00113263 [kcal/mol]       0.00473891 [kJ/mol]
      Exch-Ind20,r                  0.00005034 [mEh]       0.00003159 [kcal/mol]       0.00013217 [kJ/mol]
      Exch-Ind22                   -0.00000727 [mEh]      -0.00000456 [kcal/mol]      -0.00001909 [kJ/mol]
      delta HF,r (2)               -0.00053751 [mEh]      -0.00033730 [kcal/mol]      -0.00141124 [kJ/mol]

    Dispersion                     -0.12224544 [mEh]      -0.07671017 [kcal/mol]      -0.32095536 [kJ/mol]
      Disp20                       -0.12603643 [mEh]      -0.07908905 [kcal/mol]      -0.33090859 [kJ/mol]
      Disp21                        0.01924573 [mEh]       0.01207688 [kcal/mol]       0.05052966 [kJ/mol]
      Disp22 (SDQ)                  0.00705869 [mEh]       0.00442939 [kcal/mol]       0.01853259 [kJ/mol]
      Disp22 (T)                   -0.02200592 [mEh]      -0.01380892 [kcal/mol]      -0.05777654 [kJ/mol]
      Est. Disp22 (T)              -0.02260431 [mEh]      -0.01418442 [kcal/mol]      -0.05934760 [kJ/mol]
      Exch-Disp20                   0.00009087 [mEh]       0.00005702 [kcal/mol]       0.00023859 [kJ/mol]

  Total HF                         -0.41401477 [mEh]      -0.25979819 [kcal/mol]      -1.08699563 [kJ/mol]
  Total SAPT0                      -0.53996032 [mEh]      -0.33883022 [kcal/mol]      -1.41766563 [kJ/mol]
  Total SAPT2                      -0.45291570 [mEh]      -0.28420889 [kcal/mol]      -1.18913000 [kJ/mol]
  Total SAPT2+                     -0.44921559 [mEh]      -0.28188704 [kcal/mol]      -1.17941536 [kJ/mol]

  Special recipe for scaled SAPT0 (see Manual):
    Electrostatics sSAPT0          -0.40145295 [mEh]      -0.25191553 [kcal/mol]      -1.05401456 [kJ/mol]
    Exchange sSAPT0                 0.00042010 [mEh]       0.00026362 [kcal/mol]       0.00110298 [kJ/mol]
    Induction sSAPT0               -0.01298193 [mEh]      -0.00814628 [kcal/mol]      -0.03408405 [kJ/mol]
    Dispersion sSAPT0              -0.12594555 [mEh]      -0.07903203 [kcal/mol]      -0.33067000 [kJ/mol]
  Total sSAPT0                     -0.53996032 [mEh]      -0.33883022 [kcal/mol]      -1.41766563 [kJ/mol]
  --------------------------------------------------------------------------------------------------------

*** Psi4 exiting successfully. Buy a developer a beer!
