                               Psi4 1.4a2.dev224

  ==> Input File <==

--------------------------------------------------------------------------
#Generated by lconvert.py for sapt job

memory 50 GB

molecule  {
0 1
 Cl      -1.010160    0.000010    0.000000
  C      -2.790220    0.000020    0.000000
  H      -3.133660    1.027430    0.000000
  H      -3.133670   -0.513670    0.889750
  H      -3.133670   -0.513670   -0.889750
--
0 1
 Cl       7.535450    0.000020    0.000000
  C       5.755520    0.000030    0.000000
  H       5.409350    1.026630    0.000000
  H       5.409350   -0.513280    0.889070
  H       5.409350   -0.513280   -0.889070
units angstrom
no_reorient
symmetry c1
}

set {
scf_type DF
basis aug-cc-pvtz
freeze_core True
guess SAD
}
energy('sapt2+')
--------------------------------------------------------------------------

  //              Dimer HF             //
    Molecular point group: c1
  Charge       = 0
  Multiplicity = 1
  Basis Set: AUG-CC-PVTZ
    Blend: AUG-CC-PVTZ
  Basis Set: (AUG-CC-PVTZ AUX)
    Blend: AUG-CC-PVTZ-JKFIT
  @DF-RHF Final Energy:  -998.29800814866189
    Total Energy =                       -998.2980081486618928
  //            Monomer A HF           //
    Molecular point group: c1
  Multiplicity = 1
  Basis Set: AUG-CC-PVTZ
    Blend: AUG-CC-PVTZ
  Basis Set: (AUG-CC-PVTZ AUX)
    Blend: AUG-CC-PVTZ-JKFIT
  @DF-RHF Final Energy:  -499.14886778766265
    Total Energy =                       -499.1488677876626525
  //            Monomer B HF           //
    Molecular point group: c1

    Geometry (in Angstrom), charge = 0, multiplicity = 1:

       Center              X                  Y                   Z               Mass
    ------------   -----------------  -----------------  -----------------  -----------------
      Gh(CL)         -3.717035120936    -0.000008105954     0.000000000000    34.968852682000
      Gh(C)          -5.497095120936     0.000001894046     0.000000000000    12.000000000000
      Gh(H)          -5.840535120936     1.027411894046     0.000000000000     1.007825032230
      Gh(H)          -5.840545120936    -0.513688105954     0.889750000000     1.007825032230
      Gh(H)          -5.840545120936    -0.513688105954    -0.889750000000     1.007825032230
         CL           4.828574879064     0.000001894046     0.000000000000    34.968852682000
         C            3.048644879064     0.000011894046     0.000000000000    12.000000000000
         H            2.702474879064     1.026611894046     0.000000000000     1.007825032230
         H            2.702474879064    -0.513298105954     0.889070000000     1.007825032230
         H            2.702474879064    -0.513298105954    -0.889070000000     1.007825032230

  Charge       = 0
  Multiplicity = 1
  Basis Set: AUG-CC-PVTZ
    Blend: AUG-CC-PVTZ
  Basis Set: (AUG-CC-PVTZ AUX)
    Blend: AUG-CC-PVTZ-JKFIT

    Orbital Energies [Eh]
    ---------------------

    Doubly Occupied:

       1A   -104.826516     2A    -11.289709     3A    -10.550845
       4A     -8.017756     5A     -8.015883     6A     -8.015883
       7A     -1.128879     8A     -0.915878     9A     -0.618639
      10A     -0.618636    11A     -0.546699    12A     -0.435797
      13A     -0.435796

  @DF-RHF Final Energy:  -499.14885343372720

   => Energetics <=

    Nuclear Repulsion Energy =             51.4404329300498162
    One-Electron Energy =                -790.3447411458648730
    Two-Electron Energy =                 239.7554547820878383
    Total Energy =                       -499.1488534337271972

  Dipole Moment: [D]
     X:    -2.1260      Y:     0.0000      Z:    -0.0000     Total:     2.1260

    SAPT Results
  --------------------------------------------------------------------------------------------------------
    Electrostatics                 -0.22284251 [mEh]      -0.13983579 [kcal/mol]      -0.58507294 [kJ/mol]
      Elst10,r                     -0.28131132 [mEh]      -0.17652552 [kcal/mol]      -0.73858278 [kJ/mol]
      Elst12,r                      0.05846881 [mEh]       0.03668973 [kcal/mol]       0.15350984 [kJ/mol]

    Exchange                        0.00000834 [mEh]       0.00000524 [kcal/mol]       0.00002190 [kJ/mol]
      Exch10                        0.00000643 [mEh]       0.00000404 [kcal/mol]       0.00001689 [kJ/mol]
      Exch10(S^2)                   0.00000643 [mEh]       0.00000404 [kcal/mol]       0.00001689 [kJ/mol]
      Exch11(S^2)                   0.00000012 [mEh]       0.00000007 [kcal/mol]       0.00000031 [kJ/mol]
      Exch12(S^2)                   0.00000179 [mEh]       0.00000112 [kcal/mol]       0.00000470 [kJ/mol]

    Induction                      -0.00484272 [mEh]      -0.00303885 [kcal/mol]      -0.01271457 [kJ/mol]
      Ind20,r                      -0.00553792 [mEh]      -0.00347510 [kcal/mol]      -0.01453980 [kJ/mol]
      Ind22                         0.00077983 [mEh]       0.00048935 [kcal/mol]       0.00204746 [kJ/mol]
      Exch-Ind20,r                  0.00000126 [mEh]       0.00000079 [kcal/mol]       0.00000332 [kJ/mol]
      Exch-Ind22                   -0.00000018 [mEh]      -0.00000011 [kcal/mol]      -0.00000047 [kJ/mol]
      delta HF,r (2)               -0.00008572 [mEh]      -0.00005379 [kcal/mol]      -0.00022507 [kJ/mol]

    Dispersion                     -0.04441474 [mEh]      -0.02787067 [kcal/mol]      -0.11661089 [kJ/mol]
      Disp20                       -0.04600015 [mEh]      -0.02886553 [kcal/mol]      -0.12077337 [kJ/mol]
      Disp21                        0.00739432 [mEh]       0.00464001 [kcal/mol]       0.01941378 [kJ/mol]
      Disp22 (SDQ)                  0.00259559 [mEh]       0.00162876 [kcal/mol]       0.00681473 [kJ/mol]
      Disp22 (T)                   -0.00824940 [mEh]      -0.00517658 [kcal/mol]      -0.02165879 [kJ/mol]
      Est. Disp22 (T)              -0.00840636 [mEh]      -0.00527507 [kcal/mol]      -0.02207089 [kJ/mol]
      Exch-Disp20                   0.00000185 [mEh]       0.00000116 [kcal/mol]       0.00000486 [kJ/mol]

  Total HF                         -0.28692727 [mEh]      -0.18004958 [kcal/mol]      -0.75332745 [kJ/mol]
  Total SAPT0                      -0.33292557 [mEh]      -0.20891395 [kcal/mol]      -0.87409596 [kJ/mol]
  Total SAPT2                      -0.27367519 [mEh]      -0.17173377 [kcal/mol]      -0.71853411 [kJ/mol]
  Total SAPT2+                     -0.27209163 [mEh]      -0.17074008 [kcal/mol]      -0.71437649 [kJ/mol]

  Special recipe for scaled SAPT0 (see Manual):
    Electrostatics sSAPT0          -0.28131132 [mEh]      -0.17652552 [kcal/mol]      -0.73858278 [kJ/mol]
    Exchange sSAPT0                 0.00000643 [mEh]       0.00000404 [kcal/mol]       0.00001689 [kJ/mol]
    Induction sSAPT0               -0.00562238 [mEh]      -0.00352810 [kcal/mol]      -0.01476156 [kJ/mol]
    Dispersion sSAPT0              -0.04599830 [mEh]      -0.02886437 [kcal/mol]      -0.12076851 [kJ/mol]
  Total sSAPT0                     -0.33292557 [mEh]      -0.20891395 [kcal/mol]      -0.87409596 [kJ/mol]
  --------------------------------------------------------------------------------------------------------

*** Psi4 exiting successfully. Buy a developer a beer!
