                               Psi4 1.4a2.dev224

  ==> Input File <==

--------------------------------------------------------------------------
#Generated by lconvert.py for sapt job

memory 50 GB

molecule  {
0 1
 Cl      -1.010160    0.000010    0.000000
  C      -2.790220    0.000020    0.000000
  H      -3.133660    1.027430    0.000000
  H      -3.133670   -0.513670    0.889750
  H      -3.133670   -0.513670   -0.889750
--
0 1
 Cl       5.348320    0.000020    0.000000
  C       3.568390    0.000020    0.000000
  H       3.222210    1.026630    0.000000
  H       3.222210   -0.513280    0.889070
  H       3.222210   -0.513280   -0.889070
units angstrom
no_reorient
symmetry c1
}

set {
scf_type DF
basis aug-cc-pvtz
freeze_core True
guess SAD
}
energy('sapt2+')
--------------------------------------------------------------------------

  //              Dimer HF             //
    Molecular point group: c1
  Charge       = 0
  Multiplicity = 1
  Basis Set: AUG-CC-PVTZ
    Blend: AUG-CC-PVTZ
  Basis Set: (AUG-CC-PVTZ AUX)
    Blend: AUG-CC-PVTZ-JKFIT
  @DF-RHF Final Energy:  -998.29835168494355
    Total Energy =                       -998.2983516849435546
  //            Monomer A HF           //
    Molecular point group: c1
  Multiplicity = 1
  Basis Set: AUG-CC-PVTZ
    Blend: AUG-CC-PVTZ
  Basis Set: (AUG-CC-PVTZ AUX)
    Blend: AUG-CC-PVTZ-JKFIT
  @DF-RHF Final Energy:  -499.14888192539394
    Total Energy =                       -499.1488819253939937
  //            Monomer B HF           //
    Molecular point group: c1

    Geometry (in Angstrom), charge = 0, multiplicity = 1:

       Center              X                  Y                   Z               Mass
    ------------   -----------------  -----------------  -----------------  -----------------
      Gh(CL)         -2.623469818542    -0.000006905770     0.000000000000    34.968852682000
      Gh(C)          -4.403529818542     0.000003094230     0.000000000000    12.000000000000
      Gh(H)          -4.746969818542     1.027413094230     0.000000000000     1.007825032230
      Gh(H)          -4.746979818542    -0.513686905770     0.889750000000     1.007825032230
      Gh(H)          -4.746979818542    -0.513686905770    -0.889750000000     1.007825032230
         CL           3.735010181458     0.000003094230     0.000000000000    34.968852682000
         C            1.955080181458     0.000003094230     0.000000000000    12.000000000000
         H            1.608900181458     1.026613094230     0.000000000000     1.007825032230
         H            1.608900181458    -0.513296905770     0.889070000000     1.007825032230
         H            1.608900181458    -0.513296905770    -0.889070000000     1.007825032230

  Charge       = 0
  Multiplicity = 1
  Basis Set: AUG-CC-PVTZ
    Blend: AUG-CC-PVTZ
  Basis Set: (AUG-CC-PVTZ AUX)
    Blend: AUG-CC-PVTZ-JKFIT

    Orbital Energies [Eh]
    ---------------------

    Doubly Occupied:

       1A   -104.826531     2A    -11.289702     3A    -10.550846
       4A     -8.017756     5A     -8.015886     6A     -8.015886
       7A     -1.128875     8A     -0.915875     9A     -0.618634
      10A     -0.618633    11A     -0.546700    12A     -0.435793
      13A     -0.435793

  @DF-RHF Final Energy:  -499.14886086057606

   => Energetics <=

    Nuclear Repulsion Energy =             51.4403634014898188
    One-Electron Energy =                -790.3446288619165898
    Two-Electron Energy =                 239.7554045998507490
    Total Energy =                       -499.1488608605760646

  Dipole Moment: [D]
     X:    -2.1258      Y:     0.0000      Z:    -0.0000     Total:     2.1258

    SAPT Results
  --------------------------------------------------------------------------------------------------------
    Electrostatics                 -0.47255786 [mEh]      -0.29653454 [kcal/mol]      -1.24070050 [kJ/mol]
      Elst10,r                     -0.59920823 [mEh]      -0.37600884 [kcal/mol]      -1.57322099 [kJ/mol]
      Elst12,r                      0.12665037 [mEh]       0.07947430 [kcal/mol]       0.33252049 [kJ/mol]

    Exchange                        0.02886670 [mEh]       0.01811413 [kcal/mol]       0.07578952 [kJ/mol]
      Exch10                        0.02546128 [mEh]       0.01597719 [kcal/mol]       0.06684857 [kJ/mol]
      Exch10(S^2)                   0.02546099 [mEh]       0.01597701 [kcal/mol]       0.06684781 [kJ/mol]
      Exch11(S^2)                   0.00070475 [mEh]       0.00044224 [kcal/mol]       0.00185032 [kJ/mol]
      Exch12(S^2)                   0.00270068 [mEh]       0.00169470 [kcal/mol]       0.00709063 [kJ/mol]

    Induction                      -0.03140882 [mEh]      -0.01970933 [kcal/mol]      -0.08246385 [kJ/mol]
      Ind20,r                      -0.03563141 [mEh]      -0.02235905 [kcal/mol]      -0.09355025 [kJ/mol]
      Ind22                         0.00421429 [mEh]       0.00264451 [kcal/mol]       0.01106463 [kJ/mol]
      Exch-Ind20,r                  0.00398307 [mEh]       0.00249941 [kcal/mol]       0.01045755 [kJ/mol]
      Exch-Ind22                   -0.00047110 [mEh]      -0.00029562 [kcal/mol]      -0.00123686 [kJ/mol]
      delta HF,r (2)               -0.00350368 [mEh]      -0.00219859 [kcal/mol]      -0.00919892 [kJ/mol]

    Dispersion                     -0.43724814 [mEh]      -0.27437735 [kcal/mol]      -1.14799483 [kJ/mol]
      Disp20                       -0.44800243 [mEh]      -0.28112577 [kcal/mol]      -1.17623021 [kJ/mol]
      Disp21                        0.06036555 [mEh]       0.03787995 [kcal/mol]       0.15848973 [kJ/mol]
      Disp22 (SDQ)                  0.02446500 [mEh]       0.01535202 [kcal/mol]       0.06423285 [kJ/mol]
      Disp22 (T)                   -0.07469697 [mEh]      -0.04687306 [kcal/mol]      -0.19611687 [kJ/mol]
      Est. Disp22 (T)              -0.07815785 [mEh]      -0.04904479 [kcal/mol]      -0.20520340 [kJ/mol]
      Exch-Disp20                   0.00408158 [mEh]       0.00256123 [kcal/mol]       0.01071620 [kJ/mol]

  Total HF                         -0.60889897 [mEh]      -0.38208987 [kcal/mol]      -1.59866403 [kJ/mol]
  Total SAPT0                      -1.05281982 [mEh]      -0.66065441 [kcal/mol]      -2.76417805 [kJ/mol]
  Total SAPT2                      -0.91902083 [mEh]      -0.57669427 [kcal/mol]      -2.41288885 [kJ/mol]
  Total SAPT2+                     -0.91234812 [mEh]      -0.57250709 [kcal/mol]      -2.39536966 [kJ/mol]

  Special recipe for scaled SAPT0 (see Manual):
    Electrostatics sSAPT0          -0.59920823 [mEh]      -0.37600884 [kcal/mol]      -1.57322099 [kJ/mol]
    Exchange sSAPT0                 0.02546128 [mEh]       0.01597719 [kcal/mol]       0.06684857 [kJ/mol]
    Induction sSAPT0               -0.03515188 [mEh]      -0.02205814 [kcal/mol]      -0.09229126 [kJ/mol]
    Dispersion sSAPT0              -0.44392070 [mEh]      -0.27856445 [kcal/mol]      -1.16551365 [kJ/mol]
  Total sSAPT0                     -1.05281954 [mEh]      -0.66065424 [kcal/mol]      -2.76417733 [kJ/mol]
  --------------------------------------------------------------------------------------------------------

*** Psi4 exiting successfully. Buy a developer a beer!
