                               Psi4 1.4a2.dev224

  ==> Input File <==

--------------------------------------------------------------------------
#Generated by lconvert.py for sapt job

memory 50 GB

molecule  {
0 1
 Br      -0.469370    1.468740   -0.609270
  C      -0.738760   -0.344380   -0.002180
  H       0.222200   -0.733380    0.310190
  H      -1.439710   -0.314630    0.822340
  H      -1.141520   -0.912800   -0.830830
--
0 1
  O       3.616580   -0.483680    0.356400
  H       4.510810   -0.200510    0.555490
  H       3.183690    0.317360    0.046740
units angstrom
no_reorient
symmetry c1
}

set {
scf_type DF
basis aug-cc-pvtz
freeze_core True
guess SAD
}
energy('sapt2+')
--------------------------------------------------------------------------

  //              Dimer HF             //
    Molecular point group: c1
  Charge       = 0
  Multiplicity = 1
  Basis Set: AUG-CC-PVTZ
    Blend: AUG-CC-PVTZ
  Basis Set: (AUG-CC-PVTZ AUX)
    Blend: AUG-CC-PVTZ-JKFIT
  @DF-RHF Final Energy: -2688.15512665085953
    Total Energy =                      -2688.1551266508595290
  //            Monomer A HF           //
    Molecular point group: c1
  Multiplicity = 1
  Basis Set: AUG-CC-PVTZ
    Blend: AUG-CC-PVTZ
  Basis Set: (AUG-CC-PVTZ AUX)
    Blend: AUG-CC-PVTZ-JKFIT
  @DF-RHF Final Energy: -2612.09295202343083
    Total Energy =                      -2612.0929520234312804
  //            Monomer B HF           //
    Molecular point group: c1

    Geometry (in Angstrom), charge = 0, multiplicity = 1:

       Center              X                  Y                   Z               Mass
    ------------   -----------------  -----------------  -----------------  -----------------
      Gh(BR)         -0.624052632253     0.556002350227    -0.238602170798    78.918337600000
      Gh(C)          -0.893442632253    -1.257117649773     0.368487829202    12.000000000000
      Gh(H)           0.067517367747    -1.646117649773     0.680857829202     1.007825032230
      Gh(H)          -1.594392632253    -1.227367649773     1.193007829202     1.007825032230
      Gh(H)          -1.296202632253    -1.825537649773    -0.460162170798     1.007825032230
         O            3.461897367747    -1.396417649773     0.727067829202    15.994914619570
         H            4.356127367747    -1.113247649773     0.926157829202     1.007825032230
         H            3.029007367747    -0.595377649773     0.417407829202     1.007825032230

  Charge       = 0
  Multiplicity = 1
  Basis Set: AUG-CC-PVTZ
    Blend: AUG-CC-PVTZ
  Basis Set: (AUG-CC-PVTZ AUX)
    Blend: AUG-CC-PVTZ-JKFIT

    Orbital Energies [Eh]
    ---------------------

    Doubly Occupied:

       1A    -20.568005     2A     -1.352447     3A     -0.715021
       4A     -0.585511     5A     -0.510280

  @DF-RHF Final Energy:   -76.06035018113636

   => Energetics <=

    Nuclear Repulsion Energy =              9.1665607211305531
    One-Electron Energy =                -122.9912905422340685
    Two-Electron Energy =                  37.7643796399671530
    Total Energy =                        -76.0603501811363572

  Dipole Moment: [D]
     X:     0.7788      Y:     1.8276      Z:    -0.1858     Total:     1.9953

    SAPT Results
  --------------------------------------------------------------------------------------------------------
    Electrostatics                 -1.57256580 [mEh]      -0.98679994 [kcal/mol]      -4.12877094 [kJ/mol]
      Elst10,r                     -1.81329206 [mEh]      -1.13785795 [kcal/mol]      -4.76079765 [kJ/mol]
      Elst12,r                      0.24072626 [mEh]       0.15105801 [kcal/mol]       0.63202671 [kJ/mol]

    Exchange                        0.14435700 [mEh]       0.09058538 [kcal/mol]       0.37900924 [kJ/mol]
      Exch10                        0.12127054 [mEh]       0.07609841 [kcal/mol]       0.31839575 [kJ/mol]
      Exch10(S^2)                   0.12126510 [mEh]       0.07609500 [kcal/mol]       0.31838149 [kJ/mol]
      Exch11(S^2)                   0.00197445 [mEh]       0.00123899 [kcal/mol]       0.00518393 [kJ/mol]
      Exch12(S^2)                   0.02111201 [mEh]       0.01324798 [kcal/mol]       0.05542956 [kJ/mol]

    Induction                      -0.13214880 [mEh]      -0.08292463 [kcal/mol]      -0.34695664 [kJ/mol]
      Ind20,r                      -0.14430464 [mEh]      -0.09055253 [kcal/mol]      -0.37887179 [kJ/mol]
      Ind22                         0.00032095 [mEh]       0.00020140 [kcal/mol]       0.00084266 [kJ/mol]
      Exch-Ind20,r                  0.02022701 [mEh]       0.01269264 [kcal/mol]       0.05310602 [kJ/mol]
      Exch-Ind22                   -0.00004499 [mEh]      -0.00002823 [kcal/mol]      -0.00011811 [kJ/mol]
      delta HF,r (2)               -0.00834714 [mEh]      -0.00523791 [kcal/mol]      -0.02191540 [kJ/mol]

    Dispersion                     -0.66448156 [mEh]      -0.41696847 [kcal/mol]      -1.74459609 [kJ/mol]
      Disp20                       -0.63692177 [mEh]      -0.39967444 [kcal/mol]      -1.67223788 [kJ/mol]
      Disp21                        0.05627883 [mEh]       0.03531550 [kcal/mol]       0.14776004 [kJ/mol]
      Disp22 (SDQ)                  0.01281561 [mEh]       0.00804192 [kcal/mol]       0.03364738 [kJ/mol]
      Disp22 (T)                   -0.10331448 [mEh]      -0.06483082 [kcal/mol]      -0.27125213 [kJ/mol]
      Est. Disp22 (T)              -0.11109072 [mEh]      -0.06971048 [kcal/mol]      -0.29166865 [kJ/mol]
      Exch-Disp20                   0.01443650 [mEh]       0.00905904 [kcal/mol]       0.03790302 [kJ/mol]

  Total HF                         -1.82444629 [mEh]      -1.14485733 [kcal/mol]      -4.79008308 [kJ/mol]
  Total SAPT0                      -2.44693157 [mEh]      -1.53547274 [kcal/mol]      -6.42441794 [kJ/mol]
  Total SAPT2                      -2.18284288 [mEh]      -1.36975459 [kcal/mol]      -5.73105320 [kJ/mol]
  Total SAPT2+                     -2.22483917 [mEh]      -1.39610765 [kcal/mol]      -5.84131443 [kJ/mol]

  Special recipe for scaled SAPT0 (see Manual):
    Electrostatics sSAPT0          -1.81329206 [mEh]      -1.13785795 [kcal/mol]      -4.76079765 [kJ/mol]
    Exchange sSAPT0                 0.12127054 [mEh]       0.07609841 [kcal/mol]       0.31839575 [kJ/mol]
    Induction sSAPT0               -0.13242205 [mEh]      -0.08309609 [kcal/mol]      -0.34767404 [kJ/mol]
    Dispersion sSAPT0              -0.62248333 [mEh]      -0.39061419 [kcal/mol]      -1.63432977 [kJ/mol]
  Total sSAPT0                     -2.44692691 [mEh]      -1.53546982 [kcal/mol]      -6.42440571 [kJ/mol]
  --------------------------------------------------------------------------------------------------------

*** Psi4 exiting successfully. Buy a developer a beer!
