                               Psi4 1.4a2.dev224

  ==> Input File <==

--------------------------------------------------------------------------
#Generated by lconvert.py for sapt job

memory 50 GB

molecule  {
0 1
 Br      -0.469370    1.468740   -0.609270
  C      -0.738760   -0.344380   -0.002180
  H       0.222200   -0.733380    0.310190
  H      -1.439710   -0.314630    0.822340
  H      -1.141520   -0.912800   -0.830830
--
0 1
  O       5.538090   -1.221030    0.754070
  H       6.432310   -0.937860    0.953150
  H       5.105190   -0.419990    0.444400
units angstrom
no_reorient
symmetry c1
}

set {
scf_type DF
basis aug-cc-pvtz
freeze_core True
guess SAD
}
energy('sapt2+')
--------------------------------------------------------------------------

  //              Dimer HF             //
    Molecular point group: c1
  Charge       = 0
  Multiplicity = 1
  Basis Set: AUG-CC-PVTZ
    Blend: AUG-CC-PVTZ
  Basis Set: (AUG-CC-PVTZ AUX)
    Blend: AUG-CC-PVTZ-JKFIT
  @DF-RHF Final Energy: -2688.15372586776266
    Total Energy =                      -2688.1537258677626596
  //            Monomer A HF           //
    Molecular point group: c1
  Multiplicity = 1
  Basis Set: AUG-CC-PVTZ
    Blend: AUG-CC-PVTZ
  Basis Set: (AUG-CC-PVTZ AUX)
    Blend: AUG-CC-PVTZ-JKFIT
  @DF-RHF Final Energy: -2612.09294070115811
    Total Energy =                      -2612.0929407011581134
  //            Monomer B HF           //
    Molecular point group: c1

    Geometry (in Angstrom), charge = 0, multiplicity = 1:

       Center              X                  Y                   Z               Mass
    ------------   -----------------  -----------------  -----------------  -----------------
      Gh(BR)         -0.933179251975     0.674625019798    -0.302577954689    78.918337600000
      Gh(C)          -1.202569251975    -1.138494980202     0.304512045311    12.000000000000
      Gh(H)          -0.241609251975    -1.527494980202     0.616882045311     1.007825032230
      Gh(H)          -1.903519251975    -1.108744980202     1.129032045311     1.007825032230
      Gh(H)          -1.605329251975    -1.706914980202    -0.524137954689     1.007825032230
         O            5.074280748025    -2.015144980202     1.060762045311    15.994914619570
         H            5.968500748025    -1.731974980202     1.259842045311     1.007825032230
         H            4.641380748025    -1.214104980202     0.751092045311     1.007825032230

  Charge       = 0
  Multiplicity = 1
  Basis Set: AUG-CC-PVTZ
    Blend: AUG-CC-PVTZ
  Basis Set: (AUG-CC-PVTZ AUX)
    Blend: AUG-CC-PVTZ-JKFIT

    Orbital Energies [Eh]
    ---------------------

    Doubly Occupied:

       1A    -20.568004     2A     -1.352448     3A     -0.715022
       4A     -0.585512     5A     -0.510281

  @DF-RHF Final Energy:   -76.06033974973072

   => Energetics <=

    Nuclear Repulsion Energy =              9.1665778803976661
    One-Electron Energy =                -122.9912987398464992
    Two-Electron Energy =                  37.7643811097181157
    Total Energy =                        -76.0603397497307157

  Dipole Moment: [D]
     X:     0.7787      Y:     1.8273      Z:    -0.1860     Total:     1.9950

    SAPT Results
  --------------------------------------------------------------------------------------------------------
    Electrostatics                 -0.36741321 [mEh]      -0.23055527 [kcal/mol]      -0.96464326 [kJ/mol]
      Elst10,r                     -0.43912044 [mEh]      -0.27555224 [kcal/mol]      -1.15291056 [kJ/mol]
      Elst12,r                      0.07170723 [mEh]       0.04499697 [kcal/mol]       0.18826730 [kJ/mol]

    Exchange                        0.00007372 [mEh]       0.00004626 [kcal/mol]       0.00019354 [kJ/mol]
      Exch10                        0.00005714 [mEh]       0.00003585 [kcal/mol]       0.00015001 [kJ/mol]
      Exch10(S^2)                   0.00005714 [mEh]       0.00003585 [kcal/mol]       0.00015001 [kJ/mol]
      Exch11(S^2)                   0.00000041 [mEh]       0.00000026 [kcal/mol]       0.00000107 [kJ/mol]
      Exch12(S^2)                   0.00001617 [mEh]       0.00001015 [kcal/mol]       0.00004245 [kJ/mol]

    Induction                      -0.00587689 [mEh]      -0.00368780 [kcal/mol]      -0.01542977 [kJ/mol]
      Ind20,r                      -0.00729933 [mEh]      -0.00458040 [kcal/mol]      -0.01916439 [kJ/mol]
      Ind22                         0.00047712 [mEh]       0.00029940 [kcal/mol]       0.00125269 [kJ/mol]
      Exch-Ind20,r                  0.00000681 [mEh]       0.00000428 [kcal/mol]       0.00001789 [kJ/mol]
      Exch-Ind22                   -0.00000045 [mEh]      -0.00000028 [kcal/mol]      -0.00000117 [kJ/mol]
      delta HF,r (2)                0.00093895 [mEh]       0.00058920 [kcal/mol]       0.00246520 [kJ/mol]

    Dispersion                     -0.05293350 [mEh]      -0.03321627 [kcal/mol]      -0.13897689 [kJ/mol]
      Disp20                       -0.05190902 [mEh]      -0.03257340 [kcal/mol]      -0.13628711 [kJ/mol]
      Disp21                        0.00697831 [mEh]       0.00437896 [kcal/mol]       0.01832155 [kJ/mol]
      Disp22 (SDQ)                  0.00134049 [mEh]       0.00084117 [kcal/mol]       0.00351946 [kJ/mol]
      Disp22 (T)                   -0.00914539 [mEh]      -0.00573882 [kcal/mol]      -0.02401122 [kJ/mol]
      Est. Disp22 (T)              -0.00935429 [mEh]      -0.00586990 [kcal/mol]      -0.02455968 [kJ/mol]
      Exch-Disp20                   0.00001100 [mEh]       0.00000690 [kcal/mol]       0.00002888 [kJ/mol]

  Total HF                         -0.44541687 [mEh]      -0.27950331 [kcal/mol]      -1.16944184 [kJ/mol]
  Total SAPT0                      -0.49731489 [mEh]      -0.31206981 [kcal/mol]      -1.30570007 [kJ/mol]
  Total SAPT2                      -0.42511441 [mEh]      -0.26676332 [kcal/mol]      -1.11613772 [kJ/mol]
  Total SAPT2+                     -0.42614989 [mEh]      -0.26741309 [kcal/mol]      -1.11885638 [kJ/mol]

  Special recipe for scaled SAPT0 (see Manual):
    Electrostatics sSAPT0          -0.43912044 [mEh]      -0.27555224 [kcal/mol]      -1.15291056 [kJ/mol]
    Exchange sSAPT0                 0.00005714 [mEh]       0.00003585 [kcal/mol]       0.00015001 [kJ/mol]
    Induction sSAPT0               -0.00635357 [mEh]      -0.00398693 [kcal/mol]      -0.01668130 [kJ/mol]
    Dispersion sSAPT0              -0.05189802 [mEh]      -0.03256650 [kcal/mol]      -0.13625823 [kJ/mol]
  Total sSAPT0                     -0.49731489 [mEh]      -0.31206981 [kcal/mol]      -1.30570007 [kJ/mol]
  --------------------------------------------------------------------------------------------------------

*** Psi4 exiting successfully. Buy a developer a beer!
