                               Psi4 1.4a2.dev224

  ==> Input File <==

--------------------------------------------------------------------------
#Generated by lconvert.py for sapt job

memory 50 GB

molecule  {
0 1
 Br      -0.469370    1.468740   -0.609270
  C      -0.738760   -0.344380   -0.002180
  H       0.222200   -0.733380    0.310190
  H      -1.439710   -0.314630    0.822340
  H      -1.141520   -0.912800   -0.830830
--
0 1
  O       4.577340   -0.852360    0.555240
  H       5.471560   -0.569190    0.754320
  H       4.144440   -0.051320    0.245570
units angstrom
no_reorient
symmetry c1
}

set {
scf_type DF
basis aug-cc-pvtz
freeze_core True
guess SAD
}
energy('sapt2+')
--------------------------------------------------------------------------

  //              Dimer HF             //
    Molecular point group: c1
  Charge       = 0
  Multiplicity = 1
  Basis Set: AUG-CC-PVTZ
    Blend: AUG-CC-PVTZ
  Basis Set: (AUG-CC-PVTZ AUX)
    Blend: AUG-CC-PVTZ-JKFIT
  @DF-RHF Final Energy: -2688.15412341350248
    Total Energy =                      -2688.1541234135024752
  //            Monomer A HF           //
    Molecular point group: c1
  Multiplicity = 1
  Basis Set: AUG-CC-PVTZ
    Blend: AUG-CC-PVTZ
  Basis Set: (AUG-CC-PVTZ AUX)
    Blend: AUG-CC-PVTZ-JKFIT
  @DF-RHF Final Energy: -2612.09294266544975
    Total Energy =                      -2612.0929426654493000
  //            Monomer B HF           //
    Molecular point group: c1

    Geometry (in Angstrom), charge = 0, multiplicity = 1:

       Center              X                  Y                   Z               Mass
    ------------   -----------------  -----------------  -----------------  -----------------
      Gh(BR)         -0.778616656476     0.615314489398    -0.270590777106    78.918337600000
      Gh(C)          -1.048006656476    -1.197805510602     0.336499222894    12.000000000000
      Gh(H)          -0.087046656476    -1.586805510602     0.648869222894     1.007825032230
      Gh(H)          -1.748956656476    -1.168055510602     1.161019222894     1.007825032230
      Gh(H)          -1.450766656476    -1.766225510602    -0.492150777106     1.007825032230
         O            4.268093343524    -1.705785510602     0.893919222894    15.994914619570
         H            5.162313343524    -1.422615510602     1.092999222894     1.007825032230
         H            3.835193343524    -0.904745510602     0.584249222894     1.007825032230

  Charge       = 0
  Multiplicity = 1
  Basis Set: AUG-CC-PVTZ
    Blend: AUG-CC-PVTZ
  Basis Set: (AUG-CC-PVTZ AUX)
    Blend: AUG-CC-PVTZ-JKFIT

    Orbital Energies [Eh]
    ---------------------

    Doubly Occupied:

       1A    -20.568006     2A     -1.352450     3A     -0.715023
       4A     -0.585511     5A     -0.510283

  @DF-RHF Final Energy:   -76.06034265123498

   => Energetics <=

    Nuclear Repulsion Energy =              9.1665778803976661
    One-Electron Energy =                -122.9912933723012998
    Two-Electron Energy =                  37.7643728406686492
    Total Energy =                        -76.0603426512349756

  Dipole Moment: [D]
     X:     0.7787      Y:     1.8275      Z:    -0.1858     Total:     1.9952

    SAPT Results
  --------------------------------------------------------------------------------------------------------
    Electrostatics                 -0.68980841 [mEh]      -0.43286131 [kcal/mol]      -1.81109174 [kJ/mol]
      Elst10,r                     -0.81575700 [mEh]      -0.51189524 [kcal/mol]      -2.14176970 [kJ/mol]
      Elst12,r                      0.12594858 [mEh]       0.07903393 [kcal/mol]       0.33067796 [kJ/mol]

    Exchange                        0.00345391 [mEh]       0.00216736 [kcal/mol]       0.00906824 [kJ/mol]
      Exch10                        0.00275085 [mEh]       0.00172619 [kcal/mol]       0.00722236 [kJ/mol]
      Exch10(S^2)                   0.00275085 [mEh]       0.00172618 [kcal/mol]       0.00722235 [kJ/mol]
      Exch11(S^2)                   0.00002527 [mEh]       0.00001586 [kcal/mol]       0.00006635 [kJ/mol]
      Exch12(S^2)                   0.00067778 [mEh]       0.00042532 [kcal/mol]       0.00177952 [kJ/mol]

    Induction                      -0.02384732 [mEh]      -0.01496442 [kcal/mol]      -0.06261113 [kJ/mol]
      Ind20,r                      -0.02555477 [mEh]      -0.01603586 [kcal/mol]      -0.06709403 [kJ/mol]
      Ind22                         0.00126208 [mEh]       0.00079197 [kcal/mol]       0.00331360 [kJ/mol]
      Exch-Ind20,r                  0.00037925 [mEh]       0.00023799 [kcal/mol]       0.00099573 [kJ/mol]
      Exch-Ind22                   -0.00001873 [mEh]      -0.00001175 [kcal/mol]      -0.00004918 [kJ/mol]
      delta HF,r (2)                0.00008484 [mEh]       0.00005324 [kcal/mol]       0.00022275 [kJ/mol]

    Dispersion                     -0.16327905 [mEh]      -0.10245915 [kcal/mol]      -0.42868910 [kJ/mol]
      Disp20                       -0.15786961 [mEh]      -0.09906468 [kcal/mol]      -0.41448661 [kJ/mol]
      Disp21                        0.01851267 [mEh]       0.01161688 [kcal/mol]       0.04860502 [kJ/mol]
      Disp22 (SDQ)                  0.00377752 [mEh]       0.00237043 [kcal/mol]       0.00991788 [kJ/mol]
      Disp22 (T)                   -0.02711085 [mEh]      -0.01701232 [kcal/mol]      -0.07117953 [kJ/mol]
      Est. Disp22 (T)              -0.02812459 [mEh]      -0.01764845 [kcal/mol]      -0.07384110 [kJ/mol]
      Exch-Disp20                   0.00042495 [mEh]       0.00026666 [kcal/mol]       0.00111571 [kJ/mol]

  Total HF                         -0.83809682 [mEh]      -0.52591369 [kcal/mol]      -2.20042289 [kJ/mol]
  Total SAPT0                      -0.99554148 [mEh]      -0.62471171 [kcal/mol]      -2.61379379 [kJ/mol]
  Total SAPT2                      -0.86764649 [mEh]      -0.54445639 [kcal/mol]      -2.27800553 [kJ/mol]
  Total SAPT2+                     -0.87348088 [mEh]      -0.54811753 [kcal/mol]      -2.29332373 [kJ/mol]

  Special recipe for scaled SAPT0 (see Manual):
    Electrostatics sSAPT0          -0.81575700 [mEh]      -0.51189524 [kcal/mol]      -2.14176970 [kJ/mol]
    Exchange sSAPT0                 0.00275085 [mEh]       0.00172619 [kcal/mol]       0.00722236 [kJ/mol]
    Induction sSAPT0               -0.02509067 [mEh]      -0.01574463 [kcal/mol]      -0.06587555 [kJ/mol]
    Dispersion sSAPT0              -0.15744466 [mEh]      -0.09879802 [kcal/mol]      -0.41337090 [kJ/mol]
  Total sSAPT0                     -0.99554148 [mEh]      -0.62471171 [kcal/mol]      -2.61379379 [kJ/mol]
  --------------------------------------------------------------------------------------------------------

*** Psi4 exiting successfully. Buy a developer a beer!
