                               Psi4 1.4a2.dev224

  ==> Input File <==

--------------------------------------------------------------------------
#Generated by lconvert.py for sapt job

memory 50 GB

molecule  {
0 1
 Br       2.177490   -0.607410    0.000150
  C       1.823120    1.288190    0.000110
  H       0.749230    1.426570    0.000140
  H       2.269760    1.710430   -0.891300
  H       2.269820    1.710470    0.891480
--
0 1
 Br      -5.353920    1.052400    0.000170
  C      -4.999800   -0.843240    0.000130
  H      -5.446630   -1.265440   -0.891210
  H      -5.446430   -1.265440    0.891570
  H      -3.925930   -0.981800    0.000010
units angstrom
no_reorient
symmetry c1
}

set {
scf_type DF
basis aug-cc-pvtz
freeze_core True
guess SAD
}
energy('sapt2+')
--------------------------------------------------------------------------

  //              Dimer HF             //
    Molecular point group: c1
  Charge       = 0
  Multiplicity = 1
  Basis Set: AUG-CC-PVTZ
    Blend: AUG-CC-PVTZ
  Basis Set: (AUG-CC-PVTZ AUX)
    Blend: AUG-CC-PVTZ-JKFIT
  @DF-RHF Final Energy: -5224.18620941579866
    Total Energy =                      -5224.1862094157986576
  //            Monomer A HF           //
    Molecular point group: c1
  Multiplicity = 1
  Basis Set: AUG-CC-PVTZ
    Blend: AUG-CC-PVTZ
  Basis Set: (AUG-CC-PVTZ AUX)
    Blend: AUG-CC-PVTZ-JKFIT
  @DF-RHF Final Energy: -2612.09292775570020
    Total Energy =                      -2612.0929277556997476
  //            Monomer B HF           //
    Molecular point group: c1

    Geometry (in Angstrom), charge = 0, multiplicity = 1:

       Center              X                  Y                   Z               Mass
    ------------   -----------------  -----------------  -----------------  -----------------
      Gh(BR)          3.765725741373    -0.829901479691    -0.000003442149    78.918337600000
      Gh(C)           3.411355741373     1.065698520309    -0.000043442149    12.000000000000
      Gh(H)           2.337465741373     1.204078520309    -0.000013442149     1.007825032230
      Gh(H)           3.857995741373     1.487938520309    -0.891453442149     1.007825032230
      Gh(H)           3.858055741373     1.487978520309     0.891326557851     1.007825032230
         BR          -3.765684258627     0.829908520309     0.000016557851    78.918337600000
         C           -3.411564258627    -1.065731479691    -0.000023442149    12.000000000000
         H           -3.858394258627    -1.487931479691    -0.891363442149     1.007825032230
         H           -3.858194258627    -1.487931479691     0.891416557851     1.007825032230
         H           -2.337694258627    -1.204291479691    -0.000143442149     1.007825032230

  Charge       = 0
  Multiplicity = 1
  Basis Set: AUG-CC-PVTZ
    Blend: AUG-CC-PVTZ
  Basis Set: (AUG-CC-PVTZ AUX)
    Blend: AUG-CC-PVTZ-JKFIT

    Orbital Energies [Eh]
    ---------------------

    Doubly Occupied:

       1A   -490.013257     2A    -65.153255     3A    -58.508537
       4A    -58.507167     5A    -58.507167     6A    -11.287325
       7A     -9.826232     8A     -7.437798     9A     -7.431105
      10A     -7.431105    11A     -3.181379    12A     -3.177901
      13A     -3.177900    14A     -3.169339    15A     -3.169339
      16A     -1.064086    17A     -0.897083    18A     -0.613538
      19A     -0.612992    20A     -0.507688    21A     -0.401718
      22A     -0.401660

  @DF-RHF Final Energy: -2612.09292765191685

   => Energetics <=

    Nuclear Repulsion Energy =             89.6704328700018181
    One-Electron Energy =               -3814.5715777031159632
    Two-Electron Energy =                1112.8082171811977332
    Total Energy =                      -2612.0929276519163977

  Dipole Moment: [D]
     X:     0.3892      Y:    -2.0932      Z:    -0.0000     Total:     2.1291

    SAPT Results
  --------------------------------------------------------------------------------------------------------
    Electrostatics                 -0.35261440 [mEh]      -0.22126888 [kcal/mol]      -0.92578899 [kJ/mol]
      Elst10,r                     -0.42135891 [mEh]      -0.26440671 [kcal/mol]      -1.10627767 [kJ/mol]
      Elst12,r                      0.06874451 [mEh]       0.04313783 [kcal/mol]       0.18048868 [kJ/mol]

    Exchange                        0.00013788 [mEh]       0.00008652 [kcal/mol]       0.00036199 [kJ/mol]
      Exch10                        0.00012277 [mEh]       0.00007704 [kcal/mol]       0.00032233 [kJ/mol]
      Exch10(S^2)                   0.00012277 [mEh]       0.00007704 [kcal/mol]       0.00032233 [kJ/mol]
      Exch11(S^2)                  -0.00000123 [mEh]      -0.00000077 [kcal/mol]      -0.00000323 [kJ/mol]
      Exch12(S^2)                   0.00001634 [mEh]       0.00001025 [kcal/mol]       0.00004289 [kJ/mol]

    Induction                       0.06821868 [mEh]       0.04280787 [kcal/mol]       0.17910812 [kJ/mol]
      Ind20,r                      -0.00744930 [mEh]      -0.00467451 [kcal/mol]      -0.01955814 [kJ/mol]
      Ind22                         0.00099223 [mEh]       0.00062263 [kcal/mol]       0.00260509 [kJ/mol]
      Exch-Ind20,r                  0.00001132 [mEh]       0.00000710 [kcal/mol]       0.00002973 [kJ/mol]
      Exch-Ind22                   -0.00000151 [mEh]      -0.00000095 [kcal/mol]      -0.00000396 [kJ/mol]
      delta HF,r (2)                0.07466594 [mEh]       0.04685358 [kcal/mol]       0.19603540 [kJ/mol]

    Dispersion                     -0.09488154 [mEh]      -0.05953907 [kcal/mol]      -0.24911145 [kJ/mol]
      Disp20                       -0.10217365 [mEh]      -0.06411494 [kcal/mol]      -0.26825689 [kJ/mol]
      Disp21                        0.02136121 [mEh]       0.01340436 [kcal/mol]       0.05608386 [kJ/mol]
      Disp22 (SDQ)                  0.00339639 [mEh]       0.00213127 [kcal/mol]       0.00891722 [kJ/mol]
      Disp22 (T)                   -0.01721737 [mEh]      -0.01080406 [kcal/mol]      -0.04520419 [kJ/mol]
      Est. Disp22 (T)              -0.01749116 [mEh]      -0.01097587 [kcal/mol]      -0.04592303 [kJ/mol]
      Exch-Disp20                   0.00002567 [mEh]       0.00001611 [kcal/mol]       0.00006738 [kJ/mol]

  Total HF                         -0.35400818 [mEh]      -0.22214349 [kcal/mol]      -0.92944835 [kJ/mol]
  Total SAPT0                      -0.45615617 [mEh]      -0.28624232 [kcal/mol]      -1.19763786 [kJ/mol]
  Total SAPT2                      -0.38640583 [mEh]      -0.24247332 [kcal/mol]      -1.01450838 [kJ/mol]
  Total SAPT2+                     -0.37913939 [mEh]      -0.23791356 [kcal/mol]      -0.99543033 [kJ/mol]

  Special recipe for scaled SAPT0 (see Manual):
    Electrostatics sSAPT0          -0.42135891 [mEh]      -0.26440671 [kcal/mol]      -1.10627767 [kJ/mol]
    Exchange sSAPT0                 0.00012277 [mEh]       0.00007704 [kcal/mol]       0.00032233 [kJ/mol]
    Induction sSAPT0                0.06722796 [mEh]       0.04218618 [kcal/mol]       0.17650699 [kJ/mol]
    Dispersion sSAPT0              -0.10214799 [mEh]      -0.06409883 [kcal/mol]      -0.26818950 [kJ/mol]
  Total sSAPT0                     -0.45615617 [mEh]      -0.28624232 [kcal/mol]      -1.19763786 [kJ/mol]
  --------------------------------------------------------------------------------------------------------

*** Psi4 exiting successfully. Buy a developer a beer!
