                               Psi4 1.4a2.dev224

  ==> Input File <==

--------------------------------------------------------------------------
#Generated by lconvert.py for sapt job

memory 50 GB

molecule  {
0 1
 Br       2.177490   -0.607410    0.000150
  C       1.823120    1.288190    0.000110
  H       0.749230    1.426570    0.000140
  H       2.269760    1.710430   -0.891300
  H       2.269820    1.710470    0.891480
--
0 1
 Br      -4.284740    0.902650    0.000170
  C      -3.930620   -0.992990    0.000130
  H      -4.377450   -1.415180   -0.891220
  H      -4.377250   -1.415190    0.891570
  H      -2.856750   -1.131540    0.000010
units angstrom
no_reorient
symmetry c1
}

set {
scf_type DF
basis aug-cc-pvtz
freeze_core True
guess SAD
}
energy('sapt2+')
--------------------------------------------------------------------------

  //              Dimer HF             //
    Molecular point group: c1
  Charge       = 0
  Multiplicity = 1
  Basis Set: AUG-CC-PVTZ
    Blend: AUG-CC-PVTZ
  Basis Set: (AUG-CC-PVTZ AUX)
    Blend: AUG-CC-PVTZ-JKFIT
  @DF-RHF Final Energy: -5224.18650637168594
    Total Energy =                      -5224.1865063716859368
  //            Monomer A HF           //
    Molecular point group: c1
  Multiplicity = 1
  Basis Set: AUG-CC-PVTZ
    Blend: AUG-CC-PVTZ
  Basis Set: (AUG-CC-PVTZ AUX)
    Blend: AUG-CC-PVTZ-JKFIT
  @DF-RHF Final Energy: -2612.09293074270954
    Total Energy =                      -2612.0929307427090862
  //            Monomer B HF           //
    Molecular point group: c1

    Geometry (in Angstrom), charge = 0, multiplicity = 1:

       Center              X                  Y                   Z               Mass
    ------------   -----------------  -----------------  -----------------  -----------------
      Gh(BR)          3.231135741373    -0.755026586972    -0.000003388508    78.918337600000
      Gh(C)           2.876765741373     1.140573413028    -0.000043388508    12.000000000000
      Gh(H)           1.802875741373     1.278953413028    -0.000013388508     1.007825032230
      Gh(H)           3.323405741373     1.562813413028    -0.891453388508     1.007825032230
      Gh(H)           3.323465741373     1.562853413028     0.891326611492     1.007825032230
         BR          -3.231094258627     0.755033413028     0.000016611492    78.918337600000
         C           -2.876974258627    -1.140606586972    -0.000023388508    12.000000000000
         H           -3.323804258627    -1.562796586972    -0.891373388508     1.007825032230
         H           -3.323604258627    -1.562806586972     0.891416611492     1.007825032230
         H           -1.803104258627    -1.279156586972    -0.000143388508     1.007825032230

  Charge       = 0
  Multiplicity = 1
  Basis Set: AUG-CC-PVTZ
    Blend: AUG-CC-PVTZ
  Basis Set: (AUG-CC-PVTZ AUX)
    Blend: AUG-CC-PVTZ-JKFIT

    Orbital Energies [Eh]
    ---------------------

    Doubly Occupied:

       1A   -490.013274     2A    -65.153267     3A    -58.508550
       4A    -58.507180     5A    -58.507180     6A    -11.287323
       7A     -9.826233     8A     -7.437799     9A     -7.431106
      10A     -7.431106    11A     -3.181380    12A     -3.177903
      13A     -3.177902    14A     -3.169341    15A     -3.169338
      16A     -1.064083    17A     -0.897080    18A     -0.613537
      19A     -0.612990    20A     -0.507685    21A     -0.401717
      22A     -0.401656

  @DF-RHF Final Energy: -2612.09293060106302

   => Energetics <=

    Nuclear Repulsion Energy =             89.6704635997013924
    One-Electron Energy =               -3814.5715303777669760
    Two-Electron Energy =                1112.8081361770025524
    Total Energy =                      -2612.0929306010630171

  Dipole Moment: [D]
     X:     0.3892      Y:    -2.0932      Z:    -0.0000     Total:     2.1290

    SAPT Results
  --------------------------------------------------------------------------------------------------------
    Electrostatics                 -0.63065609 [mEh]      -0.39574267 [kcal/mol]      -1.65578732 [kJ/mol]
      Elst10,r                     -0.74855056 [mEh]      -0.46972257 [kcal/mol]      -1.96531922 [kJ/mol]
      Elst12,r                      0.11789447 [mEh]       0.07397990 [kcal/mol]       0.30953190 [kJ/mol]

    Exchange                        0.00537646 [mEh]       0.00337378 [kcal/mol]       0.01411589 [kJ/mol]
      Exch10                        0.00474925 [mEh]       0.00298020 [kcal/mol]       0.01246917 [kJ/mol]
      Exch10(S^2)                   0.00474925 [mEh]       0.00298020 [kcal/mol]       0.01246915 [kJ/mol]
      Exch11(S^2)                   0.00003080 [mEh]       0.00001933 [kcal/mol]       0.00008087 [kJ/mol]
      Exch12(S^2)                   0.00059640 [mEh]       0.00037425 [kcal/mol]       0.00156586 [kJ/mol]

    Induction                       0.10124318 [mEh]       0.06353105 [kcal/mol]       0.26581392 [kJ/mol]
      Ind20,r                      -0.02362947 [mEh]      -0.01482772 [kcal/mol]      -0.06203917 [kJ/mol]
      Ind22                         0.00253643 [mEh]       0.00159163 [kcal/mol]       0.00665938 [kJ/mol]
      Exch-Ind20,r                  0.00062082 [mEh]       0.00038957 [kcal/mol]       0.00162997 [kJ/mol]
      Exch-Ind22                   -0.00006664 [mEh]      -0.00004182 [kcal/mol]      -0.00017496 [kJ/mol]
      delta HF,r (2)                0.12178204 [mEh]       0.07641938 [kcal/mol]       0.31973870 [kJ/mol]

    Dispersion                     -0.26872438 [mEh]      -0.16862709 [kcal/mol]      -0.70553576 [kJ/mol]
      Disp20                       -0.28349775 [mEh]      -0.17789752 [kcal/mol]      -0.74432323 [kJ/mol]
      Disp21                        0.05227743 [mEh]       0.03280459 [kcal/mol]       0.13725438 [kJ/mol]
      Disp22 (SDQ)                  0.00970218 [mEh]       0.00608821 [kcal/mol]       0.02547307 [kJ/mol]
      Disp22 (T)                   -0.04658444 [mEh]      -0.02923217 [kcal/mol]      -0.12230742 [kJ/mol]
      Est. Disp22 (T)              -0.04804611 [mEh]      -0.03014939 [kcal/mol]      -0.12614504 [kJ/mol]
      Exch-Disp20                   0.00083986 [mEh]       0.00052702 [kcal/mol]       0.00220506 [kJ/mol]

  Total HF                         -0.64502791 [mEh]      -0.40476113 [kcal/mol]      -1.69352055 [kJ/mol]
  Total SAPT0                      -0.92768580 [mEh]      -0.58213163 [kcal/mol]      -2.43563873 [kJ/mol]
  Total SAPT2                      -0.80669434 [mEh]      -0.50620834 [kcal/mol]      -2.11797569 [kJ/mol]
  Total SAPT2+                     -0.79276083 [mEh]      -0.49746493 [kcal/mol]      -2.08139327 [kJ/mol]

  Special recipe for scaled SAPT0 (see Manual):
    Electrostatics sSAPT0          -0.74855056 [mEh]      -0.46972257 [kcal/mol]      -1.96531922 [kJ/mol]
    Exchange sSAPT0                 0.00474925 [mEh]       0.00298020 [kcal/mol]       0.01246917 [kJ/mol]
    Induction sSAPT0                0.09877339 [mEh]       0.06198124 [kcal/mol]       0.25932950 [kJ/mol]
    Dispersion sSAPT0              -0.28265789 [mEh]      -0.17737050 [kcal/mol]      -0.74211818 [kJ/mol]
  Total sSAPT0                     -0.92768580 [mEh]      -0.58213163 [kcal/mol]      -2.43563873 [kJ/mol]
  --------------------------------------------------------------------------------------------------------

*** Psi4 exiting successfully. Buy a developer a beer!
