                               Psi4 1.4a2.dev224

  ==> Input File <==

--------------------------------------------------------------------------
#Generated by lconvert.py for sapt job

memory 50 GB

molecule  {
0 1
 Br       2.177490   -0.607410    0.000150
  C       1.823120    1.288190    0.000110
  H       0.749230    1.426570    0.000140
  H       2.269760    1.710430   -0.891300
  H       2.269820    1.710470    0.891480
--
0 1
 Br      -3.215550    0.752910    0.000160
  C      -2.861440   -1.142730    0.000120
  H      -3.308270   -1.564930   -0.891220
  H      -3.308070   -1.564930    0.891560
  H      -1.787570   -1.281280    0.000010
units angstrom
no_reorient
symmetry c1
}

set {
scf_type DF
basis aug-cc-pvtz
freeze_core True
guess SAD
}
energy('sapt2+')
--------------------------------------------------------------------------

  //              Dimer HF             //
    Molecular point group: c1
  Charge       = 0
  Multiplicity = 1
  Basis Set: AUG-CC-PVTZ
    Blend: AUG-CC-PVTZ
  Basis Set: (AUG-CC-PVTZ AUX)
    Blend: AUG-CC-PVTZ-JKFIT
  @DF-RHF Final Energy: -5224.18715532150236
    Total Energy =                      -5224.1871553215023596
  //            Monomer A HF           //
    Molecular point group: c1
  Multiplicity = 1
  Basis Set: AUG-CC-PVTZ
    Blend: AUG-CC-PVTZ
  Basis Set: (AUG-CC-PVTZ AUX)
    Blend: AUG-CC-PVTZ-JKFIT
  @DF-RHF Final Energy: -2612.09294327718544
    Total Energy =                      -2612.0929432771854408
  //            Monomer B HF           //
    Molecular point group: c1

    Geometry (in Angstrom), charge = 0, multiplicity = 1:

       Center              X                  Y                   Z               Mass
    ------------   -----------------  -----------------  -----------------  -----------------
      Gh(BR)          2.696541540989    -0.680156533331     0.000001504210    78.918337600000
      Gh(C)           2.342171540989     1.215443466669    -0.000038495790    12.000000000000
      Gh(H)           1.268281540989     1.353823466669    -0.000008495790     1.007825032230
      Gh(H)           2.788811540989     1.637683466669    -0.891448495790     1.007825032230
      Gh(H)           2.788871540989     1.637723466669     0.891331504210     1.007825032230
         BR          -2.696498459011     0.680163466669     0.000011504210    78.918337600000
         C           -2.342388459011    -1.215476533331    -0.000028495790    12.000000000000
         H           -2.789218459011    -1.637676533331    -0.891368495790     1.007825032230
         H           -2.789018459011    -1.637676533331     0.891411504210     1.007825032230
         H           -1.268518459011    -1.354026533331    -0.000138495790     1.007825032230

  Charge       = 0
  Multiplicity = 1
  Basis Set: AUG-CC-PVTZ
    Blend: AUG-CC-PVTZ
  Basis Set: (AUG-CC-PVTZ AUX)
    Blend: AUG-CC-PVTZ-JKFIT

    Orbital Energies [Eh]
    ---------------------

    Doubly Occupied:

       1A   -490.013308     2A    -65.153287     3A    -58.508572
       4A    -58.507202     5A    -58.507201     6A    -11.287314
       7A     -9.826229     8A     -7.437795     9A     -7.431100
      10A     -7.431099    11A     -3.181377    12A     -3.177900
      13A     -3.177897    14A     -3.169336    15A     -3.169332
      16A     -1.064073    17A     -0.897071    18A     -0.613530
      19A     -0.612980    20A     -0.507675    21A     -0.401719
      22A     -0.401643

  @DF-RHF Final Energy: -2612.09294316608430

   => Energetics <=

    Nuclear Repulsion Energy =             89.6705302175879950
    One-Electron Energy =               -3814.5716668107511396
    Two-Electron Energy =                1112.8081934270785496
    Total Energy =                      -2612.0929431660847513

  Dipole Moment: [D]
     X:     0.3892      Y:    -2.0929      Z:    -0.0000     Total:     2.1288

    SAPT Results
  --------------------------------------------------------------------------------------------------------
    Electrostatics                 -1.32929102 [mEh]      -0.83414271 [kcal/mol]      -3.49005309 [kJ/mol]
      Elst10,r                     -1.55132960 [mEh]      -0.97347402 [kcal/mol]      -4.07301532 [kJ/mol]
      Elst12,r                      0.22203859 [mEh]       0.13933132 [kcal/mol]       0.58296223 [kJ/mol]

    Exchange                        0.18537429 [mEh]       0.11632412 [kcal/mol]       0.48670014 [kJ/mol]
      Exch10                        0.16860375 [mEh]       0.10580045 [kcal/mol]       0.44266908 [kJ/mol]
      Exch10(S^2)                   0.16859331 [mEh]       0.10579390 [kcal/mol]       0.44264168 [kJ/mol]
      Exch11(S^2)                   0.00411553 [mEh]       0.00258253 [kcal/mol]       0.01080532 [kJ/mol]
      Exch12(S^2)                   0.01265501 [mEh]       0.00794114 [kcal/mol]       0.03322573 [kJ/mol]

    Induction                       0.11774969 [mEh]       0.07388905 [kcal/mol]       0.30915178 [kJ/mol]
      Ind20,r                      -0.12280047 [mEh]      -0.07705846 [kcal/mol]      -0.32241259 [kJ/mol]
      Ind22                         0.00504188 [mEh]       0.00316383 [kcal/mol]       0.01323745 [kJ/mol]
      Exch-Ind20,r                  0.02776123 [mEh]       0.01742044 [kcal/mol]       0.07288711 [kJ/mol]
      Exch-Ind22                   -0.00113981 [mEh]      -0.00071524 [kcal/mol]      -0.00299256 [kJ/mol]
      delta HF,r (2)                0.20888686 [mEh]       0.13107848 [kcal/mol]       0.54843237 [kJ/mol]

    Dispersion                     -0.96636299 [mEh]      -0.60640193 [kcal/mol]      -2.53718567 [kJ/mol]
      Disp20                       -1.00240552 [mEh]      -0.62901896 [kcal/mol]      -2.63181534 [kJ/mol]
      Disp21                        0.14339786 [mEh]       0.08998352 [kcal/mol]       0.37649104 [kJ/mol]
      Disp22 (SDQ)                  0.03593370 [mEh]       0.02254874 [kcal/mol]       0.09434391 [kJ/mol]
      Disp22 (T)                   -0.15687478 [mEh]      -0.09844041 [kcal/mol]      -0.41187468 [kJ/mol]
      Est. Disp22 (T)              -0.16651210 [mEh]      -0.10448792 [kcal/mol]      -0.43717747 [kJ/mol]
      Exch-Disp20                   0.02322308 [mEh]       0.01457270 [kcal/mol]       0.06097218 [kJ/mol]

  Total HF                         -1.26887823 [mEh]      -0.79623311 [kcal/mol]      -3.33143934 [kJ/mol]
  Total SAPT0                      -2.24806068 [mEh]      -1.41067937 [kcal/mol]      -5.90228249 [kJ/mol]
  Total SAPT2                      -2.00534947 [mEh]      -1.25837579 [kcal/mol]      -5.26504432 [kJ/mol]
  Total SAPT2+                     -1.99253002 [mEh]      -1.25033146 [kcal/mol]      -5.23138684 [kJ/mol]

  Special recipe for scaled SAPT0 (see Manual):
    Electrostatics sSAPT0          -1.55132960 [mEh]      -0.97347402 [kcal/mol]      -4.07301532 [kJ/mol]
    Exchange sSAPT0                 0.16860375 [mEh]       0.10580045 [kcal/mol]       0.44266908 [kJ/mol]
    Induction sSAPT0                0.11385278 [mEh]       0.07144370 [kcal/mol]       0.29892043 [kJ/mol]
    Dispersion sSAPT0              -0.97917813 [mEh]      -0.61444355 [kcal/mol]      -2.57083183 [kJ/mol]
  Total sSAPT0                     -2.24805121 [mEh]      -1.41067343 [kcal/mol]      -5.90225763 [kJ/mol]
  --------------------------------------------------------------------------------------------------------

*** Psi4 exiting successfully. Buy a developer a beer!
