                               Psi4 1.4a2.dev224

  ==> Input File <==

--------------------------------------------------------------------------
#Generated by lconvert.py for sapt job

memory 50 GB

molecule  {
0 1
 Br      -1.019580    0.000010    0.000000
  C      -2.946110    0.000020    0.000000
  H      -3.282260    1.029170   -0.000000
  H      -3.282270   -0.514550    0.891260
  H      -3.282270   -0.514550   -0.891260
--
0 1
 Br       6.731200    0.000020   -0.000010
  C       4.804880    0.000020   -0.000000
  H       4.466690    1.028790   -0.000000
  H       4.466700   -0.514370    0.890940
  H       4.466690   -0.514370   -0.890940
units angstrom
no_reorient
symmetry c1
}

set {
scf_type DF
basis aug-cc-pvtz
freeze_core True
guess SAD
}
energy('sapt2+')
--------------------------------------------------------------------------

  //              Dimer HF             //
    Molecular point group: c1
  Charge       = 0
  Multiplicity = 1
  Basis Set: AUG-CC-PVTZ
    Blend: AUG-CC-PVTZ
  Basis Set: (AUG-CC-PVTZ AUX)
    Blend: AUG-CC-PVTZ-JKFIT
  @DF-RHF Final Energy: -5224.18615045549632
    Total Energy =                      -5224.1861504554963176
  //            Monomer A HF           //
    Molecular point group: c1
  Multiplicity = 1
  Basis Set: AUG-CC-PVTZ
    Blend: AUG-CC-PVTZ
  Basis Set: (AUG-CC-PVTZ AUX)
    Blend: AUG-CC-PVTZ-JKFIT
  @DF-RHF Final Energy: -2612.09291797000742
    Total Energy =                      -2612.0929179700069653
  //            Monomer B HF           //
    Molecular point group: c1

    Geometry (in Angstrom), charge = 0, multiplicity = 1:

       Center              X                  Y                   Z               Mass
    ------------   -----------------  -----------------  -----------------  -----------------
      Gh(BR)         -3.556458234788    -0.000005799616     0.000004200384    78.918337600000
      Gh(C)          -5.482988234788     0.000004200384     0.000004200384    12.000000000000
      Gh(H)          -5.819138234788     1.029154200384     0.000004200384     1.007825032230
      Gh(H)          -5.819148234788    -0.514565799616     0.891264200384     1.007825032230
      Gh(H)          -5.819148234788    -0.514565799616    -0.891255799616     1.007825032230
         BR           4.194321765212     0.000004200384    -0.000005799616    78.918337600000
         C            2.268001765212     0.000004200384     0.000004200384    12.000000000000
         H            1.929811765212     1.028774200384     0.000004200384     1.007825032230
         H            1.929821765212    -0.514385799616     0.890944200384     1.007825032230
         H            1.929811765212    -0.514385799616    -0.890935799616     1.007825032230

  Charge       = 0
  Multiplicity = 1
  Basis Set: AUG-CC-PVTZ
    Blend: AUG-CC-PVTZ
  Basis Set: (AUG-CC-PVTZ AUX)
    Blend: AUG-CC-PVTZ-JKFIT

    Orbital Energies [Eh]
    ---------------------

    Doubly Occupied:

       1A   -490.013563     2A    -65.153559     3A    -58.508843
       4A    -58.507471     5A    -58.507471     6A    -11.287009
       7A     -9.826537     8A     -7.438112     9A     -7.431406
      10A     -7.431406    11A     -3.181697    12A     -3.178211
      13A     -3.178211    14A     -3.169634    15A     -3.169634
      16A     -1.064390    17A     -0.897210    18A     -0.612595
      19A     -0.612594    20A     -0.508723    21A     -0.401826
      22A     -0.401825

  @DF-RHF Final Energy: -2612.09290097921439

   => Energetics <=

    Nuclear Repulsion Energy =             89.7150083891278882
    One-Electron Energy =               -3814.6519637950627839
    Two-Electron Energy =                1112.8440544267205041
    Total Energy =                      -2612.0929009792143916

  Dipole Moment: [D]
     X:    -2.1189      Y:    -0.0000      Z:     0.0000     Total:     2.1189

    SAPT Results
  --------------------------------------------------------------------------------------------------------
    Electrostatics                 -0.25913036 [mEh]      -0.16260676 [kcal/mol]      -0.68034666 [kJ/mol]
      Elst10,r                     -0.34764202 [mEh]      -0.21814866 [kcal/mol]      -0.91273401 [kJ/mol]
      Elst12,r                      0.08851167 [mEh]       0.05554191 [kcal/mol]       0.23238735 [kJ/mol]

    Exchange                        0.00071731 [mEh]       0.00045012 [kcal/mol]       0.00188329 [kJ/mol]
      Exch10                        0.00057899 [mEh]       0.00036332 [kcal/mol]       0.00152013 [kJ/mol]
      Exch10(S^2)                   0.00057899 [mEh]       0.00036332 [kcal/mol]       0.00152013 [kJ/mol]
      Exch11(S^2)                   0.00002231 [mEh]       0.00001400 [kcal/mol]       0.00005857 [kJ/mol]
      Exch12(S^2)                   0.00011601 [mEh]       0.00007280 [kcal/mol]       0.00030459 [kJ/mol]

    Induction                       0.01784302 [mEh]       0.01119666 [kcal/mol]       0.04684684 [kJ/mol]
      Ind20,r                      -0.01216361 [mEh]      -0.00763278 [kcal/mol]      -0.03193556 [kJ/mol]
      Ind22                         0.00231719 [mEh]       0.00145406 [kcal/mol]       0.00608377 [kJ/mol]
      Exch-Ind20,r                  0.00016235 [mEh]       0.00010188 [kcal/mol]       0.00042625 [kJ/mol]
      Exch-Ind22                   -0.00003093 [mEh]      -0.00001941 [kcal/mol]      -0.00008120 [kJ/mol]
      delta HF,r (2)                0.02755802 [mEh]       0.01729292 [kcal/mol]       0.07235358 [kJ/mol]

    Dispersion                     -0.14440057 [mEh]      -0.09061272 [kcal/mol]      -0.37912364 [kJ/mol]
      Disp20                       -0.15212653 [mEh]      -0.09546084 [kcal/mol]      -0.39940815 [kJ/mol]
      Disp21                        0.02851104 [mEh]       0.01789095 [kcal/mol]       0.07485572 [kJ/mol]
      Disp22 (SDQ)                  0.00727145 [mEh]       0.00456291 [kcal/mol]       0.01909120 [kJ/mol]
      Disp22 (T)                   -0.02770775 [mEh]      -0.01738687 [kcal/mol]      -0.07274668 [kJ/mol]
      Est. Disp22 (T)              -0.02819123 [mEh]      -0.01769026 [kcal/mol]      -0.07401605 [kJ/mol]
      Exch-Disp20                   0.00013470 [mEh]       0.00008452 [kcal/mol]       0.00035364 [kJ/mol]

  Total HF                         -0.33150627 [mEh]      -0.20802333 [kcal/mol]      -0.87036960 [kJ/mol]
  Total SAPT0                      -0.48349811 [mEh]      -0.30339964 [kcal/mol]      -1.26942411 [kJ/mol]
  Total SAPT2                      -0.39256186 [mEh]      -0.24633629 [kcal/mol]      -1.03067103 [kJ/mol]
  Total SAPT2+                     -0.38497060 [mEh]      -0.24157270 [kcal/mol]      -1.01074016 [kJ/mol]

  Special recipe for scaled SAPT0 (see Manual):
    Electrostatics sSAPT0          -0.34764202 [mEh]      -0.21814866 [kcal/mol]      -0.91273401 [kJ/mol]
    Exchange sSAPT0                 0.00057899 [mEh]       0.00036332 [kcal/mol]       0.00152013 [kJ/mol]
    Induction sSAPT0                0.01555676 [mEh]       0.00976202 [kcal/mol]       0.04084427 [kJ/mol]
    Dispersion sSAPT0              -0.15199183 [mEh]      -0.09537631 [kcal/mol]      -0.39905450 [kJ/mol]
  Total sSAPT0                     -0.48349811 [mEh]      -0.30339964 [kcal/mol]      -1.26942411 [kJ/mol]
  --------------------------------------------------------------------------------------------------------

*** Psi4 exiting successfully. Buy a developer a beer!
