                               Psi4 1.4a2.dev224

  ==> Input File <==

--------------------------------------------------------------------------
#Generated by lconvert.py for sapt job

memory 50 GB

molecule  {
0 1
 Br      -1.019580    0.000010    0.000000
  C      -2.946110    0.000020    0.000000
  H      -3.282260    1.029170   -0.000000
  H      -3.282270   -0.514550    0.891260
  H      -3.282270   -0.514550   -0.891260
--
0 1
 Br       5.610570    0.000020   -0.000010
  C       3.684250    0.000020   -0.000000
  H       3.346060    1.028790    0.000000
  H       3.346070   -0.514370    0.890940
  H       3.346060   -0.514370   -0.890940
units angstrom
no_reorient
symmetry c1
}

set {
scf_type DF
basis aug-cc-pvtz
freeze_core True
guess SAD
}
energy('sapt2+')
--------------------------------------------------------------------------

  //              Dimer HF             //
    Molecular point group: c1
  Charge       = 0
  Multiplicity = 1
  Basis Set: AUG-CC-PVTZ
    Blend: AUG-CC-PVTZ
  Basis Set: (AUG-CC-PVTZ AUX)
    Blend: AUG-CC-PVTZ-JKFIT
  @DF-RHF Final Energy: -5224.18629297536609
    Total Energy =                      -5224.1862929753660865
  //            Monomer A HF           //
    Molecular point group: c1
  Multiplicity = 1
  Basis Set: AUG-CC-PVTZ
    Blend: AUG-CC-PVTZ
  Basis Set: (AUG-CC-PVTZ AUX)
    Blend: AUG-CC-PVTZ-JKFIT
  @DF-RHF Final Energy: -2612.09292682093064
    Total Energy =                      -2612.0929268209301881
  //            Monomer B HF           //
    Molecular point group: c1

    Geometry (in Angstrom), charge = 0, multiplicity = 1:

       Center              X                  Y                   Z               Mass
    ------------   -----------------  -----------------  -----------------  -----------------
      Gh(BR)         -2.996143234788    -0.000005799616     0.000004200384    78.918337600000
      Gh(C)          -4.922673234788     0.000004200384     0.000004200384    12.000000000000
      Gh(H)          -5.258823234788     1.029154200384     0.000004200384     1.007825032230
      Gh(H)          -5.258833234788    -0.514565799616     0.891264200384     1.007825032230
      Gh(H)          -5.258833234788    -0.514565799616    -0.891255799616     1.007825032230
         BR           3.634006765212     0.000004200384    -0.000005799616    78.918337600000
         C            1.707686765212     0.000004200384     0.000004200384    12.000000000000
         H            1.369496765212     1.028774200384     0.000004200384     1.007825032230
         H            1.369506765212    -0.514385799616     0.890944200384     1.007825032230
         H            1.369496765212    -0.514385799616    -0.890935799616     1.007825032230

  Charge       = 0
  Multiplicity = 1
  Basis Set: AUG-CC-PVTZ
    Blend: AUG-CC-PVTZ
  Basis Set: (AUG-CC-PVTZ AUX)
    Blend: AUG-CC-PVTZ-JKFIT

    Orbital Energies [Eh]
    ---------------------

    Doubly Occupied:

       1A   -490.013592     2A    -65.153580     3A    -58.508865
       4A    -58.507493     5A    -58.507493     6A    -11.287003
       7A     -9.826542     8A     -7.438115     9A     -7.431411
      10A     -7.431411    11A     -3.181700    12A     -3.178217
      13A     -3.178217    14A     -3.169640    15A     -3.169640
      16A     -1.064388    17A     -0.897208    18A     -0.612595
      19A     -0.612593    20A     -0.508722    21A     -0.401824
      22A     -0.401824

  @DF-RHF Final Energy: -2612.09290569863651

   => Energetics <=

    Nuclear Repulsion Energy =             89.7150083891279593
    One-Electron Energy =               -3814.6516860960055055
    Two-Electron Energy =                1112.8437720082406486
    Total Energy =                      -2612.0929056986369687

  Dipole Moment: [D]
     X:    -2.1186      Y:    -0.0000      Z:     0.0000     Total:     2.1186

    SAPT Results
  --------------------------------------------------------------------------------------------------------
    Electrostatics                 -0.37822286 [mEh]      -0.23733842 [kcal/mol]      -0.99302397 [kJ/mol]
      Elst10,r                     -0.50555730 [mEh]      -0.31724200 [kcal/mol]      -1.32734051 [kJ/mol]
      Elst12,r                      0.12733445 [mEh]       0.07990357 [kcal/mol]       0.33431654 [kJ/mol]

    Exchange                        0.03666683 [mEh]       0.02300878 [kcal/mol]       0.09626874 [kJ/mol]
      Exch10                        0.03287072 [mEh]       0.02062669 [kcal/mol]       0.08630207 [kJ/mol]
      Exch10(S^2)                   0.03287008 [mEh]       0.02062628 [kcal/mol]       0.08630037 [kJ/mol]
      Exch11(S^2)                   0.00141347 [mEh]       0.00088697 [kcal/mol]       0.00371108 [kJ/mol]
      Exch12(S^2)                   0.00238263 [mEh]       0.00149512 [kcal/mol]       0.00625560 [kJ/mol]

    Induction                       0.01596110 [mEh]       0.01001574 [kcal/mol]       0.04190586 [kJ/mol]
      Ind20,r                      -0.03829190 [mEh]      -0.02402853 [kcal/mol]      -0.10053537 [kJ/mol]
      Ind22                         0.00475275 [mEh]       0.00298240 [kcal/mol]       0.01247834 [kJ/mol]
      Exch-Ind20,r                  0.00823752 [mEh]       0.00516912 [kcal/mol]       0.02162761 [kJ/mol]
      Exch-Ind22                   -0.00102243 [mEh]      -0.00064159 [kcal/mol]      -0.00268440 [kJ/mol]
      delta HF,r (2)                0.04228516 [mEh]       0.02653434 [kcal/mol]       0.11101967 [kJ/mol]

    Dispersion                     -0.51204966 [mEh]      -0.32131601 [kcal/mol]      -1.34438620 [kJ/mol]
      Disp20                       -0.53606939 [mEh]      -0.33638862 [kcal/mol]      -1.40744998 [kJ/mol]
      Disp21                        0.08848544 [mEh]       0.05552545 [kcal/mol]       0.23231850 [kJ/mol]
      Disp22 (SDQ)                  0.02597969 [mEh]       0.01630250 [kcal/mol]       0.06820967 [kJ/mol]
      Disp22 (T)                   -0.09206600 [mEh]      -0.05777229 [kcal/mol]      -0.24171926 [kJ/mol]
      Est. Disp22 (T)              -0.09606487 [mEh]      -0.06028162 [kcal/mol]      -0.25221829 [kJ/mol]
      Exch-Disp20                   0.00561946 [mEh]       0.00352627 [kcal/mol]       0.01475390 [kJ/mol]

  Total HF                         -0.46045580 [mEh]      -0.28894038 [kcal/mol]      -1.20892653 [kJ/mol]
  Total SAPT0                      -0.99090572 [mEh]      -0.62180273 [kcal/mol]      -2.60162261 [kJ/mol]
  Total SAPT2                      -0.85604485 [mEh]      -0.53717625 [kcal/mol]      -2.24754545 [kJ/mol]
  Total SAPT2+                     -0.83764459 [mEh]      -0.52562992 [kcal/mol]      -2.19923556 [kJ/mol]

  Special recipe for scaled SAPT0 (see Manual):
    Electrostatics sSAPT0          -0.50555730 [mEh]      -0.31724200 [kcal/mol]      -1.32734051 [kJ/mol]
    Exchange sSAPT0                 0.03287072 [mEh]       0.02062669 [kcal/mol]       0.08630207 [kJ/mol]
    Induction sSAPT0                0.01223127 [mEh]       0.00767524 [kcal/mol]       0.03211319 [kJ/mol]
    Dispersion sSAPT0              -0.53044959 [mEh]      -0.33286214 [kcal/mol]      -1.39269521 [kJ/mol]
  Total sSAPT0                     -0.99090490 [mEh]      -0.62180222 [kcal/mol]      -2.60162047 [kJ/mol]
  --------------------------------------------------------------------------------------------------------

*** Psi4 exiting successfully. Buy a developer a beer!
