                               Psi4 1.4a2.dev224

  ==> Input File <==

--------------------------------------------------------------------------
#Generated by lconvert.py for sapt job

memory 50 GB

molecule  {
0 1
 Br      -1.019580    0.000010    0.000000
  C      -2.946110    0.000020    0.000000
  H      -3.282260    1.029170   -0.000000
  H      -3.282270   -0.514550    0.891260
  H      -3.282270   -0.514550   -0.891260
--
0 1
 Br       7.851830    0.000020   -0.000010
  C       5.925510    0.000020   -0.000010
  H       5.587320    1.028790   -0.000010
  H       5.587320   -0.514370    0.890930
  H       5.587320   -0.514370   -0.890950
units angstrom
no_reorient
symmetry c1
}

set {
scf_type DF
basis aug-cc-pvtz
freeze_core True
guess SAD
}
energy('sapt2+')
--------------------------------------------------------------------------

  //              Dimer HF             //
    Molecular point group: c1
  Charge       = 0
  Multiplicity = 1
  Basis Set: AUG-CC-PVTZ
    Blend: AUG-CC-PVTZ
  Basis Set: (AUG-CC-PVTZ AUX)
    Blend: AUG-CC-PVTZ-JKFIT
  @DF-RHF Final Energy: -5224.18605143335208
    Total Energy =                      -5224.1860514333520769
  //            Monomer A HF           //
    Molecular point group: c1
  Multiplicity = 1
  Basis Set: AUG-CC-PVTZ
    Blend: AUG-CC-PVTZ
  Basis Set: (AUG-CC-PVTZ AUX)
    Blend: AUG-CC-PVTZ-JKFIT
  @DF-RHF Final Energy: -2612.09291497108779
    Total Energy =                      -2612.0929149710877937
  //            Monomer B HF           //
    Molecular point group: c1

    Geometry (in Angstrom), charge = 0, multiplicity = 1:

       Center              X                  Y                   Z               Mass
    ------------   -----------------  -----------------  -----------------  -----------------
      Gh(BR)         -4.116773181147    -0.000005799616     0.000005000000    78.918337600000
      Gh(C)          -6.043303181147     0.000004200384     0.000005000000    12.000000000000
      Gh(H)          -6.379453181147     1.029154200384     0.000005000000     1.007825032230
      Gh(H)          -6.379463181147    -0.514565799616     0.891265000000     1.007825032230
      Gh(H)          -6.379463181147    -0.514565799616    -0.891255000000     1.007825032230
         BR           4.754636818853     0.000004200384    -0.000005000000    78.918337600000
         C            2.828316818853     0.000004200384    -0.000005000000    12.000000000000
         H            2.490126818853     1.028774200384    -0.000005000000     1.007825032230
         H            2.490126818853    -0.514385799616     0.890935000000     1.007825032230
         H            2.490126818853    -0.514385799616    -0.890945000000     1.007825032230

  Charge       = 0
  Multiplicity = 1
  Basis Set: AUG-CC-PVTZ
    Blend: AUG-CC-PVTZ
  Basis Set: (AUG-CC-PVTZ AUX)
    Blend: AUG-CC-PVTZ-JKFIT

    Orbital Energies [Eh]
    ---------------------

    Doubly Occupied:

       1A   -490.013552     2A    -65.153551     3A    -58.508835
       4A    -58.507463     5A    -58.507463     6A    -11.287011
       7A     -9.826535     8A     -7.438110     9A     -7.431404
      10A     -7.431404    11A     -3.181697    12A     -3.178209
      13A     -3.178209    14A     -3.169633    15A     -3.169633
      16A     -1.064390    17A     -0.897210    18A     -0.612595
      19A     -0.612593    20A     -0.508724    21A     -0.401827
      22A     -0.401826

  @DF-RHF Final Energy: -2612.09289967718360

   => Energetics <=

    Nuclear Repulsion Energy =             89.7149726775853793
    One-Electron Energy =               -3814.6519951986228989
    Two-Electron Energy =                1112.8441228438539383
    Total Energy =                      -2612.0928996771835955

  Dipole Moment: [D]
     X:    -2.1191      Y:    -0.0000      Z:     0.0000     Total:     2.1191

    SAPT Results
  --------------------------------------------------------------------------------------------------------
    Electrostatics                 -0.19222346 [mEh]      -0.12062204 [kcal/mol]      -0.50468262 [kJ/mol]
      Elst10,r                     -0.25457578 [mEh]      -0.15974871 [kcal/mol]      -0.66838862 [kJ/mol]
      Elst12,r                      0.06235232 [mEh]       0.03912667 [kcal/mol]       0.16370600 [kJ/mol]

    Exchange                        0.00001599 [mEh]       0.00001003 [kcal/mol]       0.00004197 [kJ/mol]
      Exch10                        0.00000981 [mEh]       0.00000615 [kcal/mol]       0.00002575 [kJ/mol]
      Exch10(S^2)                   0.00000981 [mEh]       0.00000615 [kcal/mol]       0.00002575 [kJ/mol]
      Exch11(S^2)                   0.00000039 [mEh]       0.00000024 [kcal/mol]       0.00000102 [kJ/mol]
      Exch12(S^2)                   0.00000579 [mEh]       0.00000363 [kcal/mol]       0.00001521 [kJ/mol]

    Induction                       0.01888263 [mEh]       0.01184903 [kcal/mol]       0.04957633 [kJ/mol]
      Ind20,r                      -0.00544708 [mEh]      -0.00341810 [kcal/mol]      -0.01430132 [kJ/mol]
      Ind22                         0.00110227 [mEh]       0.00069169 [kcal/mol]       0.00289402 [kJ/mol]
      Exch-Ind20,r                  0.00000269 [mEh]       0.00000169 [kcal/mol]       0.00000705 [kJ/mol]
      Exch-Ind22                   -0.00000054 [mEh]      -0.00000034 [kcal/mol]      -0.00000143 [kJ/mol]
      delta HF,r (2)                0.02322529 [mEh]       0.01457409 [kcal/mol]       0.06097799 [kJ/mol]

    Dispersion                     -0.05275611 [mEh]      -0.03310496 [kcal/mol]      -0.13851116 [kJ/mol]
      Disp20                       -0.05591838 [mEh]      -0.03508931 [kcal/mol]      -0.14681368 [kJ/mol]
      Disp21                        0.01109908 [mEh]       0.00696478 [kcal/mol]       0.02914063 [kJ/mol]
      Disp22 (SDQ)                  0.00262713 [mEh]       0.00164855 [kcal/mol]       0.00689752 [kJ/mol]
      Disp22 (T)                   -0.01046618 [mEh]      -0.00656763 [kcal/mol]      -0.02747894 [kJ/mol]
      Est. Disp22 (T)              -0.01056680 [mEh]      -0.00663077 [kcal/mol]      -0.02774314 [kJ/mol]
      Exch-Disp20                   0.00000286 [mEh]       0.00000179 [kcal/mol]       0.00000751 [kJ/mol]

  Total HF                         -0.23678508 [mEh]      -0.14858488 [kcal/mol]      -0.62167914 [kJ/mol]
  Total SAPT0                      -0.29270060 [mEh]      -0.18367240 [kcal/mol]      -0.76848531 [kJ/mol]
  Total SAPT2                      -0.22924036 [mEh]      -0.14385050 [kcal/mol]      -0.60187049 [kJ/mol]
  Total SAPT2+                     -0.22608096 [mEh]      -0.14186794 [kcal/mol]      -0.59357548 [kJ/mol]

  Special recipe for scaled SAPT0 (see Manual):
    Electrostatics sSAPT0          -0.25457578 [mEh]      -0.15974871 [kcal/mol]      -0.66838862 [kJ/mol]
    Exchange sSAPT0                 0.00000981 [mEh]       0.00000615 [kcal/mol]       0.00002575 [kJ/mol]
    Induction sSAPT0                0.01778089 [mEh]       0.01115768 [kcal/mol]       0.04668373 [kJ/mol]
    Dispersion sSAPT0              -0.05591552 [mEh]      -0.03508752 [kcal/mol]      -0.14680617 [kJ/mol]
  Total sSAPT0                     -0.29270060 [mEh]      -0.18367240 [kcal/mol]      -0.76848531 [kJ/mol]
  --------------------------------------------------------------------------------------------------------

*** Psi4 exiting successfully. Buy a developer a beer!
