                               Psi4 1.4a2.dev224

  ==> Input File <==

--------------------------------------------------------------------------
#Generated by lconvert.py for sapt job

memory 50 GB

molecule  {
0 1
  F       1.865440   -0.037080   -0.000230
  C       0.515310   -0.022010   -0.000110
  C      -0.137120    1.200150   -0.000160
  C      -0.164210   -1.229310    0.000060
  C      -1.530320    1.207010   -0.000040
  C      -1.557220   -1.205090    0.000180
  C      -2.241540    0.008740    0.000130
  H       0.438180    2.114300   -0.000290
  H       0.390600   -2.156030    0.000100
  H      -2.056610    2.151160   -0.000080
  H      -2.104440   -2.137270    0.000310
  H      -3.321950    0.020780    0.000220
--
0 1
  O       5.983240    0.062880    0.001950
  H       5.380410    0.044550    0.747980
  H       5.385860    0.046450   -0.748490
units angstrom
no_reorient
symmetry c1
}

set {
scf_type DF
basis aug-cc-pvtz
freeze_core True
guess SAD
}
energy('sapt2+')
--------------------------------------------------------------------------

  //              Dimer HF             //
    Molecular point group: c1
  Charge       = 0
  Multiplicity = 1
  Basis Set: AUG-CC-PVTZ
    Blend: AUG-CC-PVTZ
  Basis Set: (AUG-CC-PVTZ AUX)
    Blend: AUG-CC-PVTZ-JKFIT
  @DF-RHF Final Energy:  -405.73414770367583
    Total Energy =                       -405.7341477036758306
  //            Monomer A HF           //
    Molecular point group: c1
  Multiplicity = 1
  Basis Set: AUG-CC-PVTZ
    Blend: AUG-CC-PVTZ
  Basis Set: (AUG-CC-PVTZ AUX)
    Blend: AUG-CC-PVTZ-JKFIT
  @DF-RHF Final Energy:  -329.67251181605286
    Total Energy =                       -329.6725118160528609
  //            Monomer B HF           //
    Molecular point group: c1

    Geometry (in Angstrom), charge = 0, multiplicity = 1:

       Center              X                  Y                   Z               Mass
    ------------   -----------------  -----------------  -----------------  -----------------
      Gh(F)           1.217425472805    -0.036201215251    -0.000469271818    18.998403162730
      Gh(C)          -0.132704527195    -0.021131215251    -0.000349271818    12.000000000000
      Gh(C)          -0.785134527195     1.201028784749    -0.000399271818    12.000000000000
      Gh(C)          -0.812224527195    -1.228431215251    -0.000179271818    12.000000000000
      Gh(C)          -2.178334527195     1.207888784749    -0.000279271818    12.000000000000
      Gh(C)          -2.205234527195    -1.204211215251    -0.000059271818    12.000000000000
      Gh(C)          -2.889554527195     0.009618784749    -0.000109271818    12.000000000000
      Gh(H)          -0.209834527195     2.115178784749    -0.000529271818     1.007825032230
      Gh(H)          -0.257414527195    -2.155151215251    -0.000139271818     1.007825032230
      Gh(H)          -2.704624527195     2.152038784749    -0.000319271818     1.007825032230
      Gh(H)          -2.752454527195    -2.136391215251     0.000070728182     1.007825032230
      Gh(H)          -3.969964527195     0.021658784749    -0.000019271818     1.007825032230
         O            5.335225472805     0.063758784749     0.001710728182    15.994914619570
         H            4.732395472805     0.045428784749     0.747740728182     1.007825032230
         H            4.737845472805     0.047328784749    -0.748729271818     1.007825032230

  Charge       = 0
  Multiplicity = 1
  Basis Set: AUG-CC-PVTZ
    Blend: AUG-CC-PVTZ
  Basis Set: (AUG-CC-PVTZ AUX)
    Blend: AUG-CC-PVTZ-JKFIT

    Orbital Energies [Eh]
    ---------------------

    Doubly Occupied:

       1A    -20.568431     2A     -1.353982     3A     -0.712778
       4A     -0.588474     5A     -0.510769

  @DF-RHF Final Energy:   -76.06024364724135

   => Energetics <=

    Nuclear Repulsion Energy =              9.1794765143002639
    One-Electron Energy =                -123.0105702198025597
    Two-Electron Energy =                  37.7708500582609474
    Total Energy =                        -76.0602436472413501

  Dipole Moment: [D]
     X:    -2.0167      Y:    -0.0584      Z:    -0.0074     Total:     2.0175

    SAPT Results
  --------------------------------------------------------------------------------------------------------
    Electrostatics                 -1.06886430 [mEh]      -0.67072247 [kcal/mol]      -2.80630283 [kJ/mol]
      Elst10,r                     -1.34972951 [mEh]      -0.84696805 [kcal/mol]      -3.54371434 [kJ/mol]
      Elst12,r                      0.28086521 [mEh]       0.17624558 [kcal/mol]       0.73741151 [kJ/mol]

    Exchange                        0.04184872 [mEh]       0.02626047 [kcal/mol]       0.10987381 [kJ/mol]
      Exch10                        0.02871783 [mEh]       0.01802071 [kcal/mol]       0.07539866 [kJ/mol]
      Exch10(S^2)                   0.02871715 [mEh]       0.01802028 [kcal/mol]       0.07539686 [kJ/mol]
      Exch11(S^2)                  -0.00069036 [mEh]      -0.00043321 [kcal/mol]      -0.00181254 [kJ/mol]
      Exch12(S^2)                   0.01382125 [mEh]       0.00867297 [kcal/mol]       0.03628769 [kJ/mol]

    Induction                      -0.06987253 [mEh]      -0.04384567 [kcal/mol]      -0.18345029 [kJ/mol]
      Ind20,r                      -0.07229380 [mEh]      -0.04536504 [kcal/mol]      -0.18980734 [kJ/mol]
      Ind22                         0.00145969 [mEh]       0.00091597 [kcal/mol]       0.00383242 [kJ/mol]
      Exch-Ind20,r                  0.00512664 [mEh]       0.00321701 [kcal/mol]       0.01345998 [kJ/mol]
      Exch-Ind22                   -0.00010351 [mEh]      -0.00006495 [kcal/mol]      -0.00027177 [kJ/mol]
      delta HF,r (2)               -0.00406154 [mEh]      -0.00254866 [kcal/mol]      -0.01066358 [kJ/mol]

    Dispersion                     -0.31954220 [mEh]      -0.20051576 [kcal/mol]      -0.83895793 [kJ/mol]
      Disp20                       -0.27681066 [mEh]      -0.17370131 [kcal/mol]      -0.72676629 [kJ/mol]
      Disp21                        0.02364182 [mEh]       0.01483547 [kcal/mol]       0.06207160 [kJ/mol]
      Disp22 (SDQ)                 -0.00888054 [mEh]      -0.00557262 [kcal/mol]      -0.02331585 [kJ/mol]
      Disp22 (T)                   -0.05770374 [mEh]      -0.03620964 [kcal/mol]      -0.15150115 [kJ/mol]
      Est. Disp22 (T)              -0.06084294 [mEh]      -0.03817952 [kcal/mol]      -0.15974312 [kJ/mol]
      Exch-Disp20                   0.00335012 [mEh]       0.00210223 [kcal/mol]       0.00879573 [kJ/mol]

  Total HF                         -1.39224038 [mEh]      -0.87364403 [kcal/mol]      -3.65532662 [kJ/mol]
  Total SAPT0                      -1.66570093 [mEh]      -1.04524311 [kcal/mol]      -4.37329718 [kJ/mol]
  Total SAPT2                      -1.37034865 [mEh]      -0.85990676 [kcal/mol]      -3.59784987 [kJ/mol]
  Total SAPT2+                     -1.41643030 [mEh]      -0.88882343 [kcal/mol]      -3.71883724 [kJ/mol]

  Special recipe for scaled SAPT0 (see Manual):
    Electrostatics sSAPT0          -1.34972951 [mEh]      -0.84696805 [kcal/mol]      -3.54371434 [kJ/mol]
    Exchange sSAPT0                 0.02871783 [mEh]       0.01802071 [kcal/mol]       0.07539866 [kJ/mol]
    Induction sSAPT0               -0.07122834 [mEh]      -0.04469646 [kcal/mol]      -0.18700998 [kJ/mol]
    Dispersion sSAPT0              -0.27346030 [mEh]      -0.17159893 [kcal/mol]      -0.71796993 [kJ/mol]
  Total sSAPT0                     -1.66570032 [mEh]      -1.04524273 [kcal/mol]      -4.37329558 [kJ/mol]
  --------------------------------------------------------------------------------------------------------

*** Psi4 exiting successfully. Buy a developer a beer!
