                               Psi4 1.4a2.dev224

  ==> Input File <==

--------------------------------------------------------------------------
#Generated by lconvert.py for sapt job

memory 50 GB

molecule  {
0 1
  F       1.865440   -0.037080   -0.000230
  C       0.515310   -0.022010   -0.000110
  C      -0.137120    1.200150   -0.000160
  C      -0.164210   -1.229310    0.000060
  C      -1.530320    1.207010   -0.000040
  C      -1.557220   -1.205090    0.000180
  C      -2.241540    0.008740    0.000130
  H       0.438180    2.114300   -0.000290
  H       0.390600   -2.156030    0.000100
  H      -2.056610    2.151160   -0.000080
  H      -2.104440   -2.137270    0.000310
  H      -3.321950    0.020780    0.000220
--
0 1
  O       7.883760    0.109010    0.002950
  H       7.280930    0.090680    0.748980
  H       7.286380    0.092590   -0.747490
units angstrom
no_reorient
symmetry c1
}

set {
scf_type DF
basis aug-cc-pvtz
freeze_core True
guess SAD
}
energy('sapt2+')
--------------------------------------------------------------------------

  //              Dimer HF             //
    Molecular point group: c1
  Charge       = 0
  Multiplicity = 1
  Basis Set: AUG-CC-PVTZ
    Blend: AUG-CC-PVTZ
  Basis Set: (AUG-CC-PVTZ AUX)
    Blend: AUG-CC-PVTZ-JKFIT
  @DF-RHF Final Energy:  -405.73323276384764
    Total Energy =                       -405.7332327638476386
  //            Monomer A HF           //
    Molecular point group: c1
  Multiplicity = 1
  Basis Set: AUG-CC-PVTZ
    Blend: AUG-CC-PVTZ
  Basis Set: (AUG-CC-PVTZ AUX)
    Blend: AUG-CC-PVTZ-JKFIT
  @DF-RHF Final Energy:  -329.67249172330958
    Total Energy =                       -329.6724917233095766
  //            Monomer B HF           //
    Molecular point group: c1

    Geometry (in Angstrom), charge = 0, multiplicity = 1:

       Center              X                  Y                   Z               Mass
    ------------   -----------------  -----------------  -----------------  -----------------
      Gh(F)           0.917293857356    -0.043486189556    -0.000627192605    18.998403162730
      Gh(C)          -0.432836142644    -0.028416189556    -0.000507192605    12.000000000000
      Gh(C)          -1.085266142644     1.193743810444    -0.000557192605    12.000000000000
      Gh(C)          -1.112356142644    -1.235716189556    -0.000337192605    12.000000000000
      Gh(C)          -2.478466142644     1.200603810444    -0.000437192605    12.000000000000
      Gh(C)          -2.505366142644    -1.211496189556    -0.000217192605    12.000000000000
      Gh(C)          -3.189686142644     0.002333810444    -0.000267192605    12.000000000000
      Gh(H)          -0.509966142644     2.107893810444    -0.000687192605     1.007825032230
      Gh(H)          -0.557546142644    -2.162436189556    -0.000297192605     1.007825032230
      Gh(H)          -3.004756142644     2.144753810444    -0.000477192605     1.007825032230
      Gh(H)          -3.052586142644    -2.143676189556    -0.000087192605     1.007825032230
      Gh(H)          -4.270096142644     0.014373810444    -0.000177192605     1.007825032230
         O            6.935613857356     0.102603810444     0.002552807395    15.994914619570
         H            6.332783857356     0.084273810444     0.748582807395     1.007825032230
         H            6.338233857356     0.086183810444    -0.747887192605     1.007825032230

  Charge       = 0
  Multiplicity = 1
  Basis Set: AUG-CC-PVTZ
    Blend: AUG-CC-PVTZ
  Basis Set: (AUG-CC-PVTZ AUX)
    Blend: AUG-CC-PVTZ-JKFIT

    Orbital Energies [Eh]
    ---------------------

    Doubly Occupied:

       1A    -20.568438     2A     -1.353988     3A     -0.712785
       4A     -0.588475     5A     -0.510776

  @DF-RHF Final Energy:   -76.06023410082707

   => Energetics <=

    Nuclear Repulsion Energy =              9.1794772988953657
    One-Electron Energy =                -123.0104953821369236
    Two-Electron Energy =                  37.7707839824144784
    Total Energy =                        -76.0602341008270741

  Dipole Moment: [D]
     X:    -2.0169      Y:    -0.0584      Z:    -0.0074     Total:     2.0177

    SAPT Results
  --------------------------------------------------------------------------------------------------------
    Electrostatics                 -0.39433740 [mEh]      -0.24745046 [kcal/mol]      -1.03533271 [kJ/mol]
      Elst10,r                     -0.49704317 [mEh]      -0.31189930 [kcal/mol]      -1.30498666 [kJ/mol]
      Elst12,r                      0.10270577 [mEh]       0.06444884 [kcal/mol]       0.26965395 [kJ/mol]

    Exchange                        0.00002280 [mEh]       0.00001431 [kcal/mol]       0.00005987 [kJ/mol]
      Exch10                        0.00001324 [mEh]       0.00000831 [kcal/mol]       0.00003475 [kJ/mol]
      Exch10(S^2)                   0.00001324 [mEh]       0.00000831 [kcal/mol]       0.00003475 [kJ/mol]
      Exch11(S^2)                  -0.00000094 [mEh]      -0.00000059 [kcal/mol]      -0.00000246 [kJ/mol]
      Exch12(S^2)                   0.00001050 [mEh]       0.00000659 [kcal/mol]       0.00002757 [kJ/mol]

    Induction                      -0.00919741 [mEh]      -0.00577146 [kcal/mol]      -0.02414779 [kJ/mol]
      Ind20,r                      -0.00999478 [mEh]      -0.00627182 [kcal/mol]      -0.02624128 [kJ/mol]
      Ind22                         0.00071253 [mEh]       0.00044712 [kcal/mol]       0.00187075 [kJ/mol]
      Exch-Ind20,r                  0.00000226 [mEh]       0.00000142 [kcal/mol]       0.00000592 [kJ/mol]
      Exch-Ind22                   -0.00000016 [mEh]      -0.00000010 [kcal/mol]      -0.00000042 [kJ/mol]
      delta HF,r (2)                0.00008274 [mEh]       0.00005192 [kcal/mol]       0.00021724 [kJ/mol]

    Dispersion                     -0.03755430 [mEh]      -0.02356568 [kcal/mol]      -0.09859879 [kJ/mol]
      Disp20                       -0.03400385 [mEh]      -0.02133774 [kcal/mol]      -0.08927709 [kJ/mol]
      Disp21                        0.00484132 [mEh]       0.00303797 [kcal/mol]       0.01271089 [kJ/mol]
      Disp22 (SDQ)                 -0.00060404 [mEh]      -0.00037904 [kcal/mol]      -0.00158590 [kJ/mol]
      Disp22 (T)                   -0.00760647 [mEh]      -0.00477313 [kcal/mol]      -0.01997077 [kJ/mol]
      Est. Disp22 (T)              -0.00779056 [mEh]      -0.00488865 [kcal/mol]      -0.02045411 [kJ/mol]
      Exch-Disp20                   0.00000283 [mEh]       0.00000177 [kcal/mol]       0.00000742 [kJ/mol]

  Total HF                         -0.50693971 [mEh]      -0.31810947 [kcal/mol]      -1.33097003 [kJ/mol]
  Total SAPT0                      -0.54094073 [mEh]      -0.33944543 [kcal/mol]      -1.42023970 [kJ/mol]
  Total SAPT2                      -0.43751303 [mEh]      -0.27454357 [kcal/mol]      -1.14869030 [kJ/mol]
  Total SAPT2+                     -0.44106630 [mEh]      -0.27677328 [kcal/mol]      -1.15801942 [kJ/mol]

  Special recipe for scaled SAPT0 (see Manual):
    Electrostatics sSAPT0          -0.49704317 [mEh]      -0.31189930 [kcal/mol]      -1.30498666 [kJ/mol]
    Exchange sSAPT0                 0.00001324 [mEh]       0.00000831 [kcal/mol]       0.00003475 [kJ/mol]
    Induction sSAPT0               -0.00990978 [mEh]      -0.00621848 [kcal/mol]      -0.02601812 [kJ/mol]
    Dispersion sSAPT0              -0.03400102 [mEh]      -0.02133596 [kcal/mol]      -0.08926967 [kJ/mol]
  Total sSAPT0                     -0.54094073 [mEh]      -0.33944543 [kcal/mol]      -1.42023970 [kJ/mol]
  --------------------------------------------------------------------------------------------------------

*** Psi4 exiting successfully. Buy a developer a beer!
