                               Psi4 1.4a2.dev224

  ==> Input File <==

--------------------------------------------------------------------------
#Generated by lconvert.py for sapt job

memory 50 GB

molecule  {
0 1
  F       1.865440   -0.037080   -0.000230
  C       0.515310   -0.022010   -0.000110
  C      -0.137120    1.200150   -0.000160
  C      -0.164210   -1.229310    0.000060
  C      -1.530320    1.207010   -0.000040
  C      -1.557220   -1.205090    0.000180
  C      -2.241540    0.008740    0.000130
  H       0.438180    2.114300   -0.000290
  H       0.390600   -2.156030    0.000100
  H      -2.056610    2.151160   -0.000080
  H      -2.104440   -2.137270    0.000310
  H      -3.321950    0.020780    0.000220
--
0 1
  O       6.933500    0.085940    0.002450
  H       6.330670    0.067620    0.748480
  H       6.336120    0.069520   -0.747990
units angstrom
no_reorient
symmetry c1
}

set {
scf_type DF
basis aug-cc-pvtz
freeze_core True
guess SAD
}
energy('sapt2+')
--------------------------------------------------------------------------

  //              Dimer HF             //
    Molecular point group: c1
  Charge       = 0
  Multiplicity = 1
  Basis Set: AUG-CC-PVTZ
    Blend: AUG-CC-PVTZ
  Basis Set: (AUG-CC-PVTZ AUX)
    Blend: AUG-CC-PVTZ-JKFIT
  @DF-RHF Final Energy:  -405.73354355218225
    Total Energy =                       -405.7335435521822546
  //            Monomer A HF           //
    Molecular point group: c1
  Multiplicity = 1
  Basis Set: AUG-CC-PVTZ
    Blend: AUG-CC-PVTZ
  Basis Set: (AUG-CC-PVTZ AUX)
    Blend: AUG-CC-PVTZ-JKFIT
  @DF-RHF Final Energy:  -329.67249790329777
    Total Energy =                       -329.6724979032977672
  //            Monomer B HF           //
    Molecular point group: c1

    Geometry (in Angstrom), charge = 0, multiplicity = 1:

       Center              X                  Y                   Z               Mass
    ------------   -----------------  -----------------  -----------------  -----------------
      Gh(F)           1.067359665080    -0.039843045352    -0.000548232212    18.998403162730
      Gh(C)          -0.282770334920    -0.024773045352    -0.000428232212    12.000000000000
      Gh(C)          -0.935200334920     1.197386954648    -0.000478232212    12.000000000000
      Gh(C)          -0.962290334920    -1.232073045352    -0.000258232212    12.000000000000
      Gh(C)          -2.328400334920     1.204246954648    -0.000358232212    12.000000000000
      Gh(C)          -2.355300334920    -1.207853045352    -0.000138232212    12.000000000000
      Gh(C)          -3.039620334920     0.005976954648    -0.000188232212    12.000000000000
      Gh(H)          -0.359900334920     2.111536954648    -0.000608232212     1.007825032230
      Gh(H)          -0.407480334920    -2.158793045352    -0.000218232212     1.007825032230
      Gh(H)          -2.854690334920     2.148396954648    -0.000398232212     1.007825032230
      Gh(H)          -2.902520334920    -2.140033045352    -0.000008232212     1.007825032230
      Gh(H)          -4.120030334920     0.018016954648    -0.000098232212     1.007825032230
         O            6.135419665080     0.083176954648     0.002131767788    15.994914619570
         H            5.532589665080     0.064856954648     0.748161767788     1.007825032230
         H            5.538039665080     0.066756954648    -0.748308232212     1.007825032230

  Charge       = 0
  Multiplicity = 1
  Basis Set: AUG-CC-PVTZ
    Blend: AUG-CC-PVTZ
  Basis Set: (AUG-CC-PVTZ AUX)
    Blend: AUG-CC-PVTZ-JKFIT

    Orbital Energies [Eh]
    ---------------------

    Doubly Occupied:

       1A    -20.568440     2A     -1.353990     3A     -0.712786
       4A     -0.588477     5A     -0.510775

  @DF-RHF Final Energy:   -76.06023625526407

   => Energetics <=

    Nuclear Repulsion Energy =              9.1794781806032617
    One-Electron Energy =                -123.0104908633092577
    Two-Electron Energy =                  37.7707764274419162
    Total Energy =                        -76.0602362552640727

  Dipole Moment: [D]
     X:    -2.0170      Y:    -0.0584      Z:    -0.0074     Total:     2.0179

    SAPT Results
  --------------------------------------------------------------------------------------------------------
    Electrostatics                 -0.62218190 [mEh]      -0.39042504 [kcal/mol]      -1.63353835 [kJ/mol]
      Elst10,r                     -0.78617604 [mEh]      -0.49333291 [kcal/mol]      -2.06410491 [kJ/mol]
      Elst12,r                      0.16399414 [mEh]       0.10290788 [kcal/mol]       0.43056656 [kJ/mol]

    Exchange                        0.00105360 [mEh]       0.00066114 [kcal/mol]       0.00276622 [kJ/mol]
      Exch10                        0.00065209 [mEh]       0.00040920 [kcal/mol]       0.00171207 [kJ/mol]
      Exch10(S^2)                   0.00065209 [mEh]       0.00040919 [kcal/mol]       0.00171207 [kJ/mol]
      Exch11(S^2)                  -0.00002812 [mEh]      -0.00001765 [kcal/mol]      -0.00007383 [kJ/mol]
      Exch12(S^2)                   0.00042962 [mEh]       0.00026959 [kcal/mol]       0.00112797 [kJ/mol]

    Induction                      -0.02226211 [mEh]      -0.01396968 [kcal/mol]      -0.05844916 [kJ/mol]
      Ind20,r                      -0.02376038 [mEh]      -0.01490986 [kcal/mol]      -0.06238287 [kJ/mol]
      Ind22                         0.00161284 [mEh]       0.00101208 [kcal/mol]       0.00423452 [kJ/mol]
      Exch-Ind20,r                  0.00007781 [mEh]       0.00004883 [kcal/mol]       0.00020430 [kJ/mol]
      Exch-Ind22                   -0.00000528 [mEh]      -0.00000331 [kcal/mol]      -0.00001387 [kJ/mol]
      delta HF,r (2)               -0.00018711 [mEh]      -0.00011741 [kcal/mol]      -0.00049125 [kJ/mol]

    Dispersion                     -0.09645283 [mEh]      -0.06052506 [kcal/mol]      -0.25323687 [kJ/mol]
      Disp20                       -0.08548988 [mEh]      -0.05364571 [kcal/mol]      -0.22445365 [kJ/mol]
      Disp21                        0.01022262 [mEh]       0.00641479 [kcal/mol]       0.02683949 [kJ/mol]
      Disp22 (SDQ)                 -0.00193471 [mEh]      -0.00121405 [kcal/mol]      -0.00507959 [kJ/mol]
      Disp22 (T)                   -0.01882320 [mEh]      -0.01181173 [kcal/mol]      -0.04942030 [kJ/mol]
      Est. Disp22 (T)              -0.01934529 [mEh]      -0.01213935 [kcal/mol]      -0.05079104 [kJ/mol]
      Exch-Disp20                   0.00009443 [mEh]       0.00005926 [kcal/mol]       0.00024793 [kJ/mol]

  Total HF                         -0.80939362 [mEh]      -0.50790216 [kcal/mol]      -2.12506266 [kJ/mol]
  Total SAPT0                      -0.89478907 [mEh]      -0.56148862 [kcal/mol]      -2.34926837 [kJ/mol]
  Total SAPT2                      -0.72878586 [mEh]      -0.45732003 [kcal/mol]      -1.91342701 [kJ/mol]
  Total SAPT2+                     -0.73984324 [mEh]      -0.46425864 [kcal/mol]      -1.94245816 [kJ/mol]

  Special recipe for scaled SAPT0 (see Manual):
    Electrostatics sSAPT0          -0.78617604 [mEh]      -0.49333291 [kcal/mol]      -2.06410491 [kJ/mol]
    Exchange sSAPT0                 0.00065209 [mEh]       0.00040920 [kcal/mol]       0.00171207 [kJ/mol]
    Induction sSAPT0               -0.02386967 [mEh]      -0.01497845 [kcal/mol]      -0.06266982 [kJ/mol]
    Dispersion sSAPT0              -0.08539545 [mEh]      -0.05358645 [kcal/mol]      -0.22420571 [kJ/mol]
  Total sSAPT0                     -0.89478907 [mEh]      -0.56148862 [kcal/mol]      -2.34926837 [kJ/mol]
  --------------------------------------------------------------------------------------------------------

*** Psi4 exiting successfully. Buy a developer a beer!
