                               Psi4 1.4a2.dev224

  ==> Input File <==

--------------------------------------------------------------------------
#Generated by lconvert.py for sapt job

memory 50 GB

molecule  {
0 1
 Cl       2.012920   -0.141110    0.000050
  C       0.280810   -0.072100    0.000010
  C      -0.357850    1.165540   -0.000030
  C      -0.451000   -1.257040    0.000010
  C      -1.749820    1.212160   -0.000060
  C      -1.842360   -1.196210   -0.000020
  C      -2.494930    0.034880   -0.000050
  H       0.231200    2.071140   -0.000030
  H       0.067210   -2.204960    0.000040
  H      -2.250000    2.170870   -0.000090
  H      -2.414680   -2.113650   -0.000020
  H      -3.575010    0.076430   -0.000080
--
0 1
  O       8.333500   -0.386760    0.000160
  H       8.593350    0.145880    0.754220
  H       8.593340    0.145860   -0.753920
units angstrom
no_reorient
symmetry c1
}

set {
scf_type DF
basis aug-cc-pvtz
freeze_core True
guess SAD
}
energy('sapt2+')
--------------------------------------------------------------------------

  //              Dimer HF             //
    Molecular point group: c1
  Charge       = 0
  Multiplicity = 1
  Basis Set: AUG-CC-PVTZ
    Blend: AUG-CC-PVTZ
  Basis Set: (AUG-CC-PVTZ AUX)
    Blend: AUG-CC-PVTZ-JKFIT
  @DF-RHF Final Energy:  -765.77690851807415
    Total Energy =                       -765.7769085180741513
  //            Monomer A HF           //
    Molecular point group: c1
  Multiplicity = 1
  Basis Set: AUG-CC-PVTZ
    Blend: AUG-CC-PVTZ
  Basis Set: (AUG-CC-PVTZ AUX)
    Blend: AUG-CC-PVTZ-JKFIT
  @DF-RHF Final Energy:  -689.71663013510147
    Total Energy =                       -689.7166301351014681
  //            Monomer B HF           //
    Molecular point group: c1

    Geometry (in Angstrom), charge = 0, multiplicity = 1:

       Center              X                  Y                   Z               Mass
    ------------   -----------------  -----------------  -----------------  -----------------
      Gh(CL)          0.985227511245    -0.047430773954     0.000028860185    34.968852682000
      Gh(C)          -0.746882488755     0.021579226046    -0.000011139815    12.000000000000
      Gh(C)          -1.385542488755     1.259219226046    -0.000051139815    12.000000000000
      Gh(C)          -1.478692488755    -1.163360773954    -0.000011139815    12.000000000000
      Gh(C)          -2.777512488755     1.305839226046    -0.000081139815    12.000000000000
      Gh(C)          -2.870052488755    -1.102530773954    -0.000041139815    12.000000000000
      Gh(C)          -3.522622488755     0.128559226046    -0.000071139815    12.000000000000
      Gh(H)          -0.796492488755     2.164819226046    -0.000051139815     1.007825032230
      Gh(H)          -0.960482488755    -2.111280773954     0.000018860185     1.007825032230
      Gh(H)          -3.277692488755     2.264549226046    -0.000111139815     1.007825032230
      Gh(H)          -3.442372488755    -2.019970773954    -0.000041139815     1.007825032230
      Gh(H)          -4.602702488755     0.170109226046    -0.000101139815     1.007825032230
         O            7.305807511245    -0.293080773954     0.000138860185    15.994914619570
         H            7.565657511245     0.239559226046     0.754198860185     1.007825032230
         H            7.565647511245     0.239539226046    -0.753941139815     1.007825032230

  Charge       = 0
  Multiplicity = 1
  Basis Set: AUG-CC-PVTZ
    Blend: AUG-CC-PVTZ
  Basis Set: (AUG-CC-PVTZ AUX)
    Blend: AUG-CC-PVTZ-JKFIT

    Orbital Energies [Eh]
    ---------------------

    Doubly Occupied:

       1A    -20.567895     2A     -1.353266     3A     -0.715197
       4A     -0.586247     5A     -0.510457

  @DF-RHF Final Energy:   -76.06040807963582

   => Energetics <=

    Nuclear Repulsion Energy =              9.1789550713712664
    One-Electron Energy =                -123.0125977270247830
    Two-Electron Energy =                  37.7732345760176997
    Total Energy =                        -76.0604080796358204

  Dipole Moment: [D]
     X:     0.8760      Y:     1.7960      Z:    -0.0000     Total:     1.9982

    SAPT Results
  --------------------------------------------------------------------------------------------------------
    Electrostatics                  0.10445128 [mEh]       0.06554417 [kcal/mol]       0.27423680 [kJ/mol]
      Elst10,r                      0.13565187 [mEh]       0.08512283 [kcal/mol]       0.35615393 [kJ/mol]
      Elst12,r                     -0.03120059 [mEh]      -0.01957866 [kcal/mol]      -0.08191713 [kJ/mol]

    Exchange                        0.00004284 [mEh]       0.00002688 [kcal/mol]       0.00011246 [kJ/mol]
      Exch10                        0.00002610 [mEh]       0.00001638 [kcal/mol]       0.00006852 [kJ/mol]
      Exch10(S^2)                   0.00002610 [mEh]       0.00001638 [kcal/mol]       0.00006852 [kJ/mol]
      Exch11(S^2)                  -0.00000136 [mEh]      -0.00000086 [kcal/mol]      -0.00000358 [kJ/mol]
      Exch12(S^2)                   0.00001810 [mEh]       0.00001136 [kcal/mol]       0.00004752 [kJ/mol]

    Induction                      -0.00561164 [mEh]      -0.00352136 [kcal/mol]      -0.01473337 [kJ/mol]
      Ind20,r                      -0.00610254 [mEh]      -0.00382940 [kcal/mol]      -0.01602222 [kJ/mol]
      Ind22                         0.00036988 [mEh]       0.00023211 [kcal/mol]       0.00097113 [kJ/mol]
      Exch-Ind20,r                  0.00000369 [mEh]       0.00000232 [kcal/mol]       0.00000970 [kJ/mol]
      Exch-Ind22                   -0.00000022 [mEh]      -0.00000014 [kcal/mol]      -0.00000059 [kJ/mol]
      delta HF,r (2)                0.00011754 [mEh]       0.00007376 [kcal/mol]       0.00030861 [kJ/mol]

    Dispersion                     -0.03862158 [mEh]      -0.02423540 [kcal/mol]      -0.10140093 [kJ/mol]
      Disp20                       -0.03650617 [mEh]      -0.02290797 [kcal/mol]      -0.09584693 [kJ/mol]
      Disp21                        0.00467356 [mEh]       0.00293270 [kcal/mol]       0.01227042 [kJ/mol]
      Disp22 (SDQ)                  0.00099108 [mEh]       0.00062191 [kcal/mol]       0.00260207 [kJ/mol]
      Disp22 (T)                   -0.00758434 [mEh]      -0.00475924 [kcal/mol]      -0.01991268 [kJ/mol]
      Est. Disp22 (T)              -0.00778578 [mEh]      -0.00488565 [kcal/mol]      -0.02044156 [kJ/mol]
      Exch-Disp20                   0.00000573 [mEh]       0.00000360 [kcal/mol]       0.00001505 [kJ/mol]

  Total HF                          0.12969666 [mEh]       0.08138588 [kcal/mol]       0.34051854 [kJ/mol]
  Total SAPT0                       0.09319623 [mEh]       0.05848152 [kcal/mol]       0.24468667 [kJ/mol]
  Total SAPT2                       0.06238204 [mEh]       0.03914532 [kcal/mol]       0.16378402 [kJ/mol]
  Total SAPT2+                      0.06026090 [mEh]       0.03781428 [kcal/mol]       0.15821496 [kJ/mol]

  Special recipe for scaled SAPT0 (see Manual):
    Electrostatics sSAPT0           0.13565187 [mEh]       0.08512283 [kcal/mol]       0.35615393 [kJ/mol]
    Exchange sSAPT0                 0.00002610 [mEh]       0.00001638 [kcal/mol]       0.00006852 [kJ/mol]
    Induction sSAPT0               -0.00598130 [mEh]      -0.00375332 [kcal/mol]      -0.01570391 [kJ/mol]
    Dispersion sSAPT0              -0.03650043 [mEh]      -0.02290437 [kcal/mol]      -0.09583187 [kJ/mol]
  Total sSAPT0                      0.09319623 [mEh]       0.05848152 [kcal/mol]       0.24468667 [kJ/mol]
  --------------------------------------------------------------------------------------------------------

*** Psi4 exiting successfully. Buy a developer a beer!
