                               Psi4 1.4a2.dev224

  ==> Input File <==

--------------------------------------------------------------------------
#Generated by lconvert.py for sapt job

memory 50 GB

molecule  {
0 1
 Cl       2.012920   -0.141110    0.000050
  C       0.280810   -0.072100    0.000010
  C      -0.357850    1.165540   -0.000030
  C      -0.451000   -1.257040    0.000010
  C      -1.749820    1.212160   -0.000060
  C      -1.842360   -1.196210   -0.000020
  C      -2.494930    0.034880   -0.000050
  H       0.231200    2.071140   -0.000030
  H       0.067210   -2.204960    0.000040
  H      -2.250000    2.170870   -0.000090
  H      -2.414680   -2.113650   -0.000020
  H      -3.575010    0.076430   -0.000080
--
0 1
  O       6.337520   -0.309190    0.000120
  H       6.597380    0.223450    0.754180
  H       6.597370    0.223430   -0.753960
units angstrom
no_reorient
symmetry c1
}

set {
scf_type DF
basis aug-cc-pvtz
freeze_core True
guess SAD
}
energy('sapt2+')
--------------------------------------------------------------------------

  //              Dimer HF             //
    Molecular point group: c1
  Charge       = 0
  Multiplicity = 1
  Basis Set: AUG-CC-PVTZ
    Blend: AUG-CC-PVTZ
  Basis Set: (AUG-CC-PVTZ AUX)
    Blend: AUG-CC-PVTZ-JKFIT
  @DF-RHF Final Energy:  -765.77691504381960
    Total Energy =                       -765.7769150438195993
  //            Monomer A HF           //
    Molecular point group: c1
  Multiplicity = 1
  Basis Set: AUG-CC-PVTZ
    Blend: AUG-CC-PVTZ
  Basis Set: (AUG-CC-PVTZ AUX)
    Blend: AUG-CC-PVTZ-JKFIT
  @DF-RHF Final Energy:  -689.71663530770263
    Total Energy =                       -689.7166353077026315
  //            Monomer B HF           //
    Molecular point group: c1

    Geometry (in Angstrom), charge = 0, multiplicity = 1:

       Center              X                  Y                   Z               Mass
    ------------   -----------------  -----------------  -----------------  -----------------
      Gh(CL)          1.261716587670    -0.058176006714     0.000034401107    34.968852682000
      Gh(C)          -0.470393412330     0.010833993286    -0.000005598893    12.000000000000
      Gh(C)          -1.109053412330     1.248473993286    -0.000045598893    12.000000000000
      Gh(C)          -1.202203412330    -1.174106006714    -0.000005598893    12.000000000000
      Gh(C)          -2.501023412330     1.295093993286    -0.000075598893    12.000000000000
      Gh(C)          -2.593563412330    -1.113276006714    -0.000035598893    12.000000000000
      Gh(C)          -3.246133412330     0.117813993286    -0.000065598893    12.000000000000
      Gh(H)          -0.520003412330     2.154073993286    -0.000045598893     1.007825032230
      Gh(H)          -0.683993412330    -2.122026006714     0.000024401107     1.007825032230
      Gh(H)          -3.001203412330     2.253803993286    -0.000105598893     1.007825032230
      Gh(H)          -3.165883412330    -2.030716006714    -0.000035598893     1.007825032230
      Gh(H)          -4.326213412330     0.159363993286    -0.000095598893     1.007825032230
         O            5.586316587670    -0.226256006714     0.000104401107    15.994914619570
         H            5.846176587670     0.306383993286     0.754164401107     1.007825032230
         H            5.846166587670     0.306363993286    -0.753975598893     1.007825032230

  Charge       = 0
  Multiplicity = 1
  Basis Set: AUG-CC-PVTZ
    Blend: AUG-CC-PVTZ
  Basis Set: (AUG-CC-PVTZ AUX)
    Blend: AUG-CC-PVTZ-JKFIT

    Orbital Energies [Eh]
    ---------------------

    Doubly Occupied:

       1A    -20.567896     2A     -1.353266     3A     -0.715196
       4A     -0.586251     5A     -0.510456

  @DF-RHF Final Energy:   -76.06041740447027

   => Energetics <=

    Nuclear Repulsion Energy =              9.1789301325110788
    One-Electron Energy =                -123.0125618924217719
    Two-Electron Energy =                  37.7732143554404161
    Total Energy =                        -76.0604174044702717

  Dipole Moment: [D]
     X:     0.8773      Y:     1.7955      Z:    -0.0000     Total:     1.9984

    SAPT Results
  --------------------------------------------------------------------------------------------------------
    Electrostatics                  0.07509254 [mEh]       0.04712128 [kcal/mol]       0.19715543 [kJ/mol]
      Elst10,r                      0.15223159 [mEh]       0.09552677 [kcal/mol]       0.39968399 [kJ/mol]
      Elst12,r                     -0.07713905 [mEh]      -0.04840549 [kcal/mol]      -0.20252856 [kJ/mol]

    Exchange                        0.05667724 [mEh]       0.03556551 [kcal/mol]       0.14880607 [kJ/mol]
      Exch10                        0.04198309 [mEh]       0.02634478 [kcal/mol]       0.11022657 [kJ/mol]
      Exch10(S^2)                   0.04198121 [mEh]       0.02634361 [kcal/mol]       0.11022165 [kJ/mol]
      Exch11(S^2)                  -0.00048308 [mEh]      -0.00030314 [kcal/mol]      -0.00126832 [kJ/mol]
      Exch12(S^2)                   0.01517723 [mEh]       0.00952386 [kcal/mol]       0.03984782 [kJ/mol]

    Induction                      -0.06027954 [mEh]      -0.03782598 [kcal/mol]      -0.15826391 [kJ/mol]
      Ind20,r                      -0.06588149 [mEh]      -0.04134126 [kcal/mol]      -0.17297182 [kJ/mol]
      Ind22                        -0.00452042 [mEh]      -0.00283661 [kcal/mol]      -0.01186837 [kJ/mol]
      Exch-Ind20,r                  0.01147291 [mEh]       0.00719936 [kcal/mol]       0.03012211 [kJ/mol]
      Exch-Ind22                    0.00078721 [mEh]       0.00049398 [kcal/mol]       0.00206681 [kJ/mol]
      delta HF,r (2)               -0.00213775 [mEh]      -0.00134146 [kcal/mol]      -0.00561265 [kJ/mol]

    Dispersion                     -0.36418883 [mEh]      -0.22853194 [kcal/mol]      -0.95617764 [kJ/mol]
      Disp20                       -0.34023948 [mEh]      -0.21350350 [kcal/mol]      -0.89329863 [kJ/mol]
      Disp21                        0.03425392 [mEh]       0.02149466 [kcal/mol]       0.08993364 [kJ/mol]
      Disp22 (SDQ)                  0.00501633 [mEh]       0.00314779 [kcal/mol]       0.01317037 [kJ/mol]
      Disp22 (T)                   -0.06499095 [mEh]      -0.04078243 [kcal/mol]      -0.17063370 [kJ/mol]
      Est. Disp22 (T)              -0.06936953 [mEh]      -0.04353004 [kcal/mol]      -0.18212967 [kJ/mol]
      Exch-Disp20                   0.00614993 [mEh]       0.00385914 [kcal/mol]       0.01614665 [kJ/mol]

  Total HF                          0.13766835 [mEh]       0.08638820 [kcal/mol]       0.36144821 [kJ/mol]
  Total SAPT0                      -0.19642119 [mEh]      -0.12325616 [kcal/mol]      -0.51570377 [kJ/mol]
  Total SAPT2                      -0.26259931 [mEh]      -0.16478355 [kcal/mol]      -0.68945438 [kJ/mol]
  Total SAPT2+                     -0.29269859 [mEh]      -0.18367114 [kcal/mol]      -0.76848004 [kJ/mol]

  Special recipe for scaled SAPT0 (see Manual):
    Electrostatics sSAPT0           0.15223159 [mEh]       0.09552677 [kcal/mol]       0.39968399 [kJ/mol]
    Exchange sSAPT0                 0.04198309 [mEh]       0.02634478 [kcal/mol]       0.11022657 [kJ/mol]
    Induction sSAPT0               -0.05654478 [mEh]      -0.03548239 [kcal/mol]      -0.14845831 [kJ/mol]
    Dispersion sSAPT0              -0.33408872 [mEh]      -0.20964384 [kcal/mol]      -0.87714982 [kJ/mol]
  Total sSAPT0                     -0.19641883 [mEh]      -0.12325468 [kcal/mol]      -0.51569756 [kJ/mol]
  --------------------------------------------------------------------------------------------------------

*** Psi4 exiting successfully. Buy a developer a beer!
