                               Psi4 1.4a2.dev224

  ==> Input File <==

--------------------------------------------------------------------------
#Generated by lconvert.py for sapt job

memory 50 GB

molecule  {
0 1
 Cl       2.012920   -0.141110    0.000050
  C       0.280810   -0.072100    0.000010
  C      -0.357850    1.165540   -0.000030
  C      -0.451000   -1.257040    0.000010
  C      -1.749820    1.212160   -0.000060
  C      -1.842360   -1.196210   -0.000020
  C      -2.494930    0.034880   -0.000050
  H       0.231200    2.071140   -0.000030
  H       0.067210   -2.204960    0.000040
  H      -2.250000    2.170870   -0.000090
  H      -2.414680   -2.113650   -0.000020
  H      -3.575010    0.076430   -0.000080
--
0 1
  O       7.335510   -0.347980    0.000140
  H       7.595370    0.184660    0.754200
  H       7.595360    0.184650   -0.753940
units angstrom
no_reorient
symmetry c1
}

set {
scf_type DF
basis aug-cc-pvtz
freeze_core True
guess SAD
}
energy('sapt2+')
--------------------------------------------------------------------------

  //              Dimer HF             //
    Molecular point group: c1
  Charge       = 0
  Multiplicity = 1
  Basis Set: AUG-CC-PVTZ
    Blend: AUG-CC-PVTZ
  Basis Set: (AUG-CC-PVTZ AUX)
    Blend: AUG-CC-PVTZ-JKFIT
  @DF-RHF Final Energy:  -765.77688152392841
    Total Energy =                       -765.7768815239284095
  //            Monomer A HF           //
    Molecular point group: c1
  Multiplicity = 1
  Basis Set: AUG-CC-PVTZ
    Blend: AUG-CC-PVTZ
  Basis Set: (AUG-CC-PVTZ AUX)
    Blend: AUG-CC-PVTZ-JKFIT
  @DF-RHF Final Energy:  -689.71663128618206
    Total Energy =                       -689.7166312861820643
  //            Monomer B HF           //
    Molecular point group: c1

    Geometry (in Angstrom), charge = 0, multiplicity = 1:

       Center              X                  Y                   Z               Mass
    ------------   -----------------  -----------------  -----------------  -----------------
      Gh(CL)          1.123471971944    -0.052802775233     0.000031630646    34.968852682000
      Gh(C)          -0.608638028056     0.016207224767    -0.000008369354    12.000000000000
      Gh(C)          -1.247298028056     1.253847224767    -0.000048369354    12.000000000000
      Gh(C)          -1.340448028056    -1.168732775233    -0.000008369354    12.000000000000
      Gh(C)          -2.639268028056     1.300467224767    -0.000078369354    12.000000000000
      Gh(C)          -2.731808028056    -1.107902775233    -0.000038369354    12.000000000000
      Gh(C)          -3.384378028056     0.123187224767    -0.000068369354    12.000000000000
      Gh(H)          -0.658248028056     2.159447224767    -0.000048369354     1.007825032230
      Gh(H)          -0.822238028056    -2.116652775233     0.000021630646     1.007825032230
      Gh(H)          -3.139448028056     2.259177224767    -0.000108369354     1.007825032230
      Gh(H)          -3.304128028056    -2.025342775233    -0.000038369354     1.007825032230
      Gh(H)          -4.464458028056     0.164737224767    -0.000098369354     1.007825032230
         O            6.446061971944    -0.259672775233     0.000121630646    15.994914619570
         H            6.705921971944     0.272967224767     0.754181630646     1.007825032230
         H            6.705911971944     0.272957224767    -0.753958369354     1.007825032230

  Charge       = 0
  Multiplicity = 1
  Basis Set: AUG-CC-PVTZ
    Blend: AUG-CC-PVTZ
  Basis Set: (AUG-CC-PVTZ AUX)
    Blend: AUG-CC-PVTZ-JKFIT

    Orbital Energies [Eh]
    ---------------------

    Doubly Occupied:

       1A    -20.567897     2A     -1.353264     3A     -0.715193
       4A     -0.586248     5A     -0.510458

  @DF-RHF Final Energy:   -76.06040908133245

   => Energetics <=

    Nuclear Repulsion Energy =              9.1789045738482429
    One-Electron Energy =                -123.0125038314523351
    Two-Electron Energy =                  37.7731901762716404
    Total Energy =                        -76.0604090813324518

  Dipole Moment: [D]
     X:     0.8763      Y:     1.7960      Z:    -0.0000     Total:     1.9984

    SAPT Results
  --------------------------------------------------------------------------------------------------------
    Electrostatics                  0.12709033 [mEh]       0.07975039 [kcal/mol]       0.33367562 [kJ/mol]
      Elst10,r                      0.17376658 [mEh]       0.10904018 [kcal/mol]       0.45622410 [kJ/mol]
      Elst12,r                     -0.04667625 [mEh]      -0.02928979 [kcal/mol]      -0.12254848 [kJ/mol]

    Exchange                        0.00161234 [mEh]       0.00101176 [kcal/mol]       0.00423320 [kJ/mol]
      Exch10                        0.00108350 [mEh]       0.00067991 [kcal/mol]       0.00284473 [kJ/mol]
      Exch10(S^2)                   0.00108350 [mEh]       0.00067991 [kcal/mol]       0.00284473 [kJ/mol]
      Exch11(S^2)                  -0.00003225 [mEh]      -0.00002024 [kcal/mol]      -0.00008467 [kJ/mol]
      Exch12(S^2)                   0.00056109 [mEh]       0.00035209 [kcal/mol]       0.00147314 [kJ/mol]

    Induction                      -0.01535638 [mEh]      -0.00963627 [kcal/mol]      -0.04031817 [kJ/mol]
      Ind20,r                      -0.01650903 [mEh]      -0.01035957 [kcal/mol]      -0.04334445 [kJ/mol]
      Ind22                         0.00066479 [mEh]       0.00041716 [kcal/mol]       0.00174541 [kJ/mol]
      Exch-Ind20,r                  0.00036442 [mEh]       0.00022867 [kcal/mol]       0.00095677 [kJ/mol]
      Exch-Ind22                   -0.00001467 [mEh]      -0.00000921 [kcal/mol]      -0.00003853 [kJ/mol]
      delta HF,r (2)                0.00013812 [mEh]       0.00008667 [kcal/mol]       0.00036263 [kJ/mol]

    Dispersion                     -0.10359751 [mEh]      -0.06500842 [kcal/mol]      -0.27199522 [kJ/mol]
      Disp20                       -0.09728299 [mEh]      -0.06104600 [kcal/mol]      -0.25541645 [kJ/mol]
      Disp21                        0.01152478 [mEh]       0.00723191 [kcal/mol]       0.03025831 [kJ/mol]
      Disp22 (SDQ)                  0.00224111 [mEh]       0.00140632 [kcal/mol]       0.00588404 [kJ/mol]
      Disp22 (T)                   -0.01954369 [mEh]      -0.01226385 [kcal/mol]      -0.05131196 [kJ/mol]
      Est. Disp22 (T)              -0.02027213 [mEh]      -0.01272096 [kcal/mol]      -0.05322448 [kJ/mol]
      Exch-Disp20                   0.00019172 [mEh]       0.00012030 [kcal/mol]       0.00050335 [kJ/mol]

  Total HF                          0.15884359 [mEh]       0.09967586 [kcal/mol]       0.41704378 [kJ/mol]
  Total SAPT0                       0.06175231 [mEh]       0.03875016 [kcal/mol]       0.16213068 [kJ/mol]
  Total SAPT2                       0.01625502 [mEh]       0.01020018 [kcal/mol]       0.04267754 [kJ/mol]
  Total SAPT2+                      0.00974878 [mEh]       0.00611745 [kcal/mol]       0.02559542 [kJ/mol]

  Special recipe for scaled SAPT0 (see Manual):
    Electrostatics sSAPT0           0.17376658 [mEh]       0.10904018 [kcal/mol]       0.45622410 [kJ/mol]
    Exchange sSAPT0                 0.00108350 [mEh]       0.00067991 [kcal/mol]       0.00284473 [kJ/mol]
    Induction sSAPT0               -0.01600650 [mEh]      -0.01004423 [kcal/mol]      -0.04202505 [kJ/mol]
    Dispersion sSAPT0              -0.09709127 [mEh]      -0.06092569 [kcal/mol]      -0.25491310 [kJ/mol]
  Total sSAPT0                      0.06175231 [mEh]       0.03875016 [kcal/mol]       0.16213068 [kJ/mol]
  --------------------------------------------------------------------------------------------------------

*** Psi4 exiting successfully. Buy a developer a beer!
