                               Psi4 1.4a2.dev224

  ==> Input File <==

--------------------------------------------------------------------------
#Generated by lconvert.py for sapt job

memory 50 GB

molecule  {
0 1
 Br       2.119600   -0.131360    0.000050
  C       0.238170   -0.065000    0.000010
  C      -0.407250    1.169610   -0.000030
  C      -0.490340   -1.252500    0.000010
  C      -1.799760    1.210440   -0.000060
  C      -1.882340   -1.197580   -0.000020
  C      -2.540580    0.030440   -0.000060
  H       0.173020    2.080980   -0.000030
  H       0.026310   -2.201380    0.000040
  H      -2.302820    2.167800   -0.000090
  H      -2.449800   -2.118200   -0.000010
  H      -3.620870    0.067510   -0.000080
--
0 1
  O       7.302910   -0.232620    0.000130
  H       7.729900    0.178970    0.754220
  H       7.729900    0.178970   -0.753960
units angstrom
no_reorient
symmetry c1
}

set {
scf_type DF
basis aug-cc-pvtz
freeze_core True
guess SAD
}
energy('sapt2+')
--------------------------------------------------------------------------

  //              Dimer HF             //
    Molecular point group: c1
  Charge       = 0
  Multiplicity = 1
  Basis Set: AUG-CC-PVTZ
    Blend: AUG-CC-PVTZ
  Basis Set: (AUG-CC-PVTZ AUX)
    Blend: AUG-CC-PVTZ-JKFIT
  @DF-RHF Final Energy: -2878.71834959718899
    Total Energy =                      -2878.7183495971889897
  //            Monomer A HF           //
    Molecular point group: c1
  Multiplicity = 1
  Basis Set: AUG-CC-PVTZ
    Blend: AUG-CC-PVTZ
  Basis Set: (AUG-CC-PVTZ AUX)
    Blend: AUG-CC-PVTZ-JKFIT
  @DF-RHF Final Energy: -2802.65806153642734
    Total Energy =                      -2802.6580615364268851
  //            Monomer B HF           //
    Molecular point group: c1

    Geometry (in Angstrom), charge = 0, multiplicity = 1:

       Center              X                  Y                   Z               Mass
    ------------   -----------------  -----------------  -----------------  -----------------
      Gh(BR)          0.919136996906    -0.045222880793     0.000025191073    78.918337600000
      Gh(C)          -0.962293003094     0.021137119207    -0.000014808927    12.000000000000
      Gh(C)          -1.607713003094     1.255747119207    -0.000054808927    12.000000000000
      Gh(C)          -1.690803003094    -1.166362880793    -0.000014808927    12.000000000000
      Gh(C)          -3.000223003094     1.296577119207    -0.000084808927    12.000000000000
      Gh(C)          -3.082803003094    -1.111442880793    -0.000044808927    12.000000000000
      Gh(C)          -3.741043003094     0.116577119207    -0.000084808927    12.000000000000
      Gh(H)          -1.027443003094     2.167117119207    -0.000054808927     1.007825032230
      Gh(H)          -1.174153003094    -2.115242880793     0.000015191073     1.007825032230
      Gh(H)          -3.503283003094     2.253937119207    -0.000114808927     1.007825032230
      Gh(H)          -3.650263003094    -2.032062880793    -0.000034808927     1.007825032230
      Gh(H)          -4.821333003094     0.153647119207    -0.000104808927     1.007825032230
         O            6.102446996906    -0.146482880793     0.000105191073    15.994914619570
         H            6.529436996906     0.265107119207     0.754195191073     1.007825032230
         H            6.529436996906     0.265107119207    -0.753984808927     1.007825032230

  Charge       = 0
  Multiplicity = 1
  Basis Set: AUG-CC-PVTZ
    Blend: AUG-CC-PVTZ
  Basis Set: (AUG-CC-PVTZ AUX)
    Blend: AUG-CC-PVTZ-JKFIT

    Orbital Energies [Eh]
    ---------------------

    Doubly Occupied:

       1A    -20.567965     2A     -1.353150     3A     -0.714968
       4A     -0.586270     5A     -0.510447

  @DF-RHF Final Energy:   -76.06038737899496

   => Energetics <=

    Nuclear Repulsion Energy =              9.1763421213258418
    One-Electron Energy =                -123.0078561930053951
    Two-Electron Energy =                  37.7711266926845823
    Total Energy =                        -76.0603873789949603

  Dipole Moment: [D]
     X:     1.4397      Y:     1.3874      Z:     0.0000     Total:     1.9994

    SAPT Results
  --------------------------------------------------------------------------------------------------------
    Electrostatics                  0.06114652 [mEh]       0.03837002 [kcal/mol]       0.16054018 [kJ/mol]
      Elst10,r                      0.12764377 [mEh]       0.08009768 [kcal/mol]       0.33512868 [kJ/mol]
      Elst12,r                     -0.06649725 [mEh]      -0.04172765 [kcal/mol]      -0.17458850 [kJ/mol]

    Exchange                        0.00362474 [mEh]       0.00227456 [kcal/mol]       0.00951675 [kJ/mol]
      Exch10                        0.00258283 [mEh]       0.00162075 [kcal/mol]       0.00678122 [kJ/mol]
      Exch10(S^2)                   0.00258282 [mEh]       0.00162075 [kcal/mol]       0.00678120 [kJ/mol]
      Exch11(S^2)                  -0.00006444 [mEh]      -0.00004043 [kcal/mol]      -0.00016918 [kJ/mol]
      Exch12(S^2)                   0.00110634 [mEh]       0.00069424 [kcal/mol]       0.00290470 [kJ/mol]

    Induction                      -0.02941496 [mEh]      -0.01845817 [kcal/mol]      -0.07722898 [kJ/mol]
      Ind20,r                      -0.03359931 [mEh]      -0.02108389 [kcal/mol]      -0.08821498 [kJ/mol]
      Ind22                         0.00153132 [mEh]       0.00096092 [kcal/mol]       0.00402049 [kJ/mol]
      Exch-Ind20,r                  0.00083196 [mEh]       0.00052206 [kcal/mol]       0.00218430 [kJ/mol]
      Exch-Ind22                   -0.00003792 [mEh]      -0.00002379 [kcal/mol]      -0.00009955 [kJ/mol]
      delta HF,r (2)                0.00185898 [mEh]       0.00116653 [kcal/mol]       0.00488076 [kJ/mol]

    Dispersion                     -0.14739302 [mEh]      -0.09249051 [kcal/mol]      -0.38698031 [kJ/mol]
      Disp20                       -0.14039146 [mEh]      -0.08809697 [kcal/mol]      -0.36859773 [kJ/mol]
      Disp21                        0.01908132 [mEh]       0.01197371 [kcal/mol]       0.05009800 [kJ/mol]
      Disp22 (SDQ)                  0.00226410 [mEh]       0.00142074 [kcal/mol]       0.00594438 [kJ/mol]
      Disp22 (T)                   -0.02774575 [mEh]      -0.01741072 [kcal/mol]      -0.07284646 [kJ/mol]
      Est. Disp22 (T)              -0.02882795 [mEh]      -0.01808981 [kcal/mol]      -0.07568777 [kJ/mol]
      Exch-Disp20                   0.00048098 [mEh]       0.00030182 [kcal/mol]       0.00126281 [kJ/mol]

  Total HF                          0.09931823 [mEh]       0.06232313 [kcal/mol]       0.26075999 [kJ/mol]
  Total SAPT0                      -0.04059225 [mEh]      -0.02547202 [kcal/mol]      -0.10657494 [kJ/mol]
  Total SAPT2                      -0.10455419 [mEh]      -0.06560874 [kcal/mol]      -0.27450698 [kJ/mol]
  Total SAPT2+                     -0.11203672 [mEh]      -0.07030410 [kcal/mol]      -0.29415236 [kJ/mol]

  Special recipe for scaled SAPT0 (see Manual):
    Electrostatics sSAPT0           0.12764377 [mEh]       0.08009768 [kcal/mol]       0.33512868 [kJ/mol]
    Exchange sSAPT0                 0.00258283 [mEh]       0.00162075 [kcal/mol]       0.00678122 [kJ/mol]
    Induction sSAPT0               -0.03090837 [mEh]      -0.01939530 [kcal/mol]      -0.08114992 [kJ/mol]
    Dispersion sSAPT0              -0.13991048 [mEh]      -0.08779515 [kcal/mol]      -0.36733492 [kJ/mol]
  Total sSAPT0                     -0.04059225 [mEh]      -0.02547202 [kcal/mol]      -0.10657494 [kJ/mol]
  --------------------------------------------------------------------------------------------------------

*** Psi4 exiting successfully. Buy a developer a beer!
