                               Psi4 1.4a2.dev224

  ==> Input File <==

--------------------------------------------------------------------------
#Generated by lconvert.py for sapt job

memory 50 GB

molecule  {
0 1
 Br       2.119600   -0.131360    0.000050
  C       0.238170   -0.065000    0.000010
  C      -0.407250    1.169610   -0.000030
  C      -0.490340   -1.252500    0.000010
  C      -1.799760    1.210440   -0.000060
  C      -1.882340   -1.197580   -0.000020
  C      -2.540580    0.030440   -0.000060
  H       0.173020    2.080980   -0.000030
  H       0.026310   -2.201380    0.000040
  H      -2.302820    2.167800   -0.000090
  H      -2.449800   -2.118200   -0.000010
  H      -3.620870    0.067510   -0.000080
--
0 1
  O       8.274790   -0.251610    0.000150
  H       8.701780    0.159980    0.754230
  H       8.701770    0.159980   -0.753940
units angstrom
no_reorient
symmetry c1
}

set {
scf_type DF
basis aug-cc-pvtz
freeze_core True
guess SAD
}
energy('sapt2+')
--------------------------------------------------------------------------

  //              Dimer HF             //
    Molecular point group: c1
  Charge       = 0
  Multiplicity = 1
  Basis Set: AUG-CC-PVTZ
    Blend: AUG-CC-PVTZ
  Basis Set: (AUG-CC-PVTZ AUX)
    Blend: AUG-CC-PVTZ-JKFIT
  @DF-RHF Final Energy: -2878.71831479102730
    Total Energy =                      -2878.7183147910272965
  //            Monomer A HF           //
    Molecular point group: c1
  Multiplicity = 1
  Basis Set: AUG-CC-PVTZ
    Blend: AUG-CC-PVTZ
  Basis Set: (AUG-CC-PVTZ AUX)
    Blend: AUG-CC-PVTZ-JKFIT
  @DF-RHF Final Energy: -2802.65805892747085
    Total Energy =                      -2802.6580589274708473
  //            Monomer B HF           //
    Molecular point group: c1

    Geometry (in Angstrom), charge = 0, multiplicity = 1:

       Center              X                  Y                   Z               Mass
    ------------   -----------------  -----------------  -----------------  -----------------
      Gh(BR)          0.818520246898    -0.043256883774     0.000023178445    78.918337600000
      Gh(C)          -1.062909753102     0.023103116226    -0.000016821555    12.000000000000
      Gh(C)          -1.708329753102     1.257713116226    -0.000056821555    12.000000000000
      Gh(C)          -1.791419753102    -1.164396883774    -0.000016821555    12.000000000000
      Gh(C)          -3.100839753102     1.298543116226    -0.000086821555    12.000000000000
      Gh(C)          -3.183419753102    -1.109476883774    -0.000046821555    12.000000000000
      Gh(C)          -3.841659753102     0.118543116226    -0.000086821555    12.000000000000
      Gh(H)          -1.128059753102     2.169083116226    -0.000056821555     1.007825032230
      Gh(H)          -1.274769753102    -2.113276883774     0.000013178445     1.007825032230
      Gh(H)          -3.603899753102     2.255903116226    -0.000116821555     1.007825032230
      Gh(H)          -3.750879753102    -2.030096883774    -0.000036821555     1.007825032230
      Gh(H)          -4.921949753102     0.155613116226    -0.000106821555     1.007825032230
         O            6.973710246898    -0.163506883774     0.000123178445    15.994914619570
         H            7.400700246898     0.248083116226     0.754203178445     1.007825032230
         H            7.400690246898     0.248083116226    -0.753966821555     1.007825032230

  Charge       = 0
  Multiplicity = 1
  Basis Set: AUG-CC-PVTZ
    Blend: AUG-CC-PVTZ
  Basis Set: (AUG-CC-PVTZ AUX)
    Blend: AUG-CC-PVTZ-JKFIT

    Orbital Energies [Eh]
    ---------------------

    Doubly Occupied:

       1A    -20.567962     2A     -1.353152     3A     -0.714970
       4A     -0.586271     5A     -0.510446

  @DF-RHF Final Energy:   -76.06038445792666

   => Energetics <=

    Nuclear Repulsion Energy =              9.1764010745278153
    One-Electron Energy =                -123.0079682540405344
    Two-Electron Energy =                  37.7711827215860438
    Total Energy =                        -76.0603844579266735

  Dipole Moment: [D]
     X:     1.4391      Y:     1.3875      Z:    -0.0000     Total:     1.9990

    SAPT Results
  --------------------------------------------------------------------------------------------------------
    Electrostatics                  0.09045829 [mEh]       0.05676343 [kcal/mol]       0.23749820 [kJ/mol]
      Elst10,r                      0.13976788 [mEh]       0.08770567 [kcal/mol]       0.36696051 [kJ/mol]
      Elst12,r                     -0.04930959 [mEh]      -0.03094223 [kcal/mol]      -0.12946231 [kJ/mol]

    Exchange                        0.00010990 [mEh]       0.00006896 [kcal/mol]       0.00028854 [kJ/mol]
      Exch10                        0.00007352 [mEh]       0.00004613 [kcal/mol]       0.00019302 [kJ/mol]
      Exch10(S^2)                   0.00007352 [mEh]       0.00004613 [kcal/mol]       0.00019302 [kJ/mol]
      Exch11(S^2)                  -0.00000338 [mEh]      -0.00000212 [kcal/mol]      -0.00000888 [kJ/mol]
      Exch12(S^2)                   0.00003977 [mEh]       0.00002495 [kcal/mol]       0.00010440 [kJ/mol]

    Induction                      -0.01040216 [mEh]      -0.00652745 [kcal/mol]      -0.02731086 [kJ/mol]
      Ind20,r                      -0.01255867 [mEh]      -0.00788069 [kcal/mol]      -0.03297279 [kJ/mol]
      Ind22                         0.00084717 [mEh]       0.00053161 [kcal/mol]       0.00222425 [kJ/mol]
      Exch-Ind20,r                  0.00003421 [mEh]       0.00002147 [kcal/mol]       0.00008983 [kJ/mol]
      Exch-Ind22                   -0.00000231 [mEh]      -0.00000145 [kcal/mol]      -0.00000606 [kJ/mol]
      delta HF,r (2)                0.00127744 [mEh]       0.00080160 [kcal/mol]       0.00335391 [kJ/mol]

    Dispersion                     -0.05368603 [mEh]      -0.03368849 [kcal/mol]      -0.14095266 [kJ/mol]
      Disp20                       -0.05144356 [mEh]      -0.03228132 [kcal/mol]      -0.13506505 [kJ/mol]
      Disp21                        0.00749375 [mEh]       0.00470240 [kcal/mol]       0.01967484 [kJ/mol]
      Disp22 (SDQ)                  0.00106227 [mEh]       0.00066658 [kcal/mol]       0.00278898 [kJ/mol]
      Disp22 (T)                   -0.01055145 [mEh]      -0.00662113 [kcal/mol]      -0.02770282 [kJ/mol]
      Est. Disp22 (T)              -0.01081463 [mEh]      -0.00678629 [kcal/mol]      -0.02839382 [kJ/mol]
      Exch-Disp20                   0.00001614 [mEh]       0.00001013 [kcal/mol]       0.00004239 [kJ/mol]

  Total HF                          0.12859437 [mEh]       0.08069419 [kcal/mol]       0.33762447 [kJ/mol]
  Total SAPT0                       0.07716695 [mEh]       0.04842299 [kcal/mol]       0.20260181 [kJ/mol]
  Total SAPT2                       0.02873861 [mEh]       0.01803375 [kcal/mol]       0.07545322 [kJ/mol]
  Total SAPT2+                      0.02648000 [mEh]       0.01661645 [kcal/mol]       0.06952322 [kJ/mol]

  Special recipe for scaled SAPT0 (see Manual):
    Electrostatics sSAPT0           0.13976788 [mEh]       0.08770567 [kcal/mol]       0.36696051 [kJ/mol]
    Exchange sSAPT0                 0.00007352 [mEh]       0.00004613 [kcal/mol]       0.00019302 [kJ/mol]
    Induction sSAPT0               -0.01124702 [mEh]      -0.00705761 [kcal/mol]      -0.02952906 [kJ/mol]
    Dispersion sSAPT0              -0.05142742 [mEh]      -0.03227119 [kcal/mol]      -0.13502266 [kJ/mol]
  Total sSAPT0                      0.07716695 [mEh]       0.04842299 [kcal/mol]       0.20260181 [kJ/mol]
  --------------------------------------------------------------------------------------------------------

*** Psi4 exiting successfully. Buy a developer a beer!
