                               Psi4 1.4a2.dev224

  ==> Input File <==

--------------------------------------------------------------------------
#Generated by lconvert.py for sapt job

memory 50 GB

molecule  {
0 1
 Br       2.119600   -0.131360    0.000050
  C       0.238170   -0.065000    0.000010
  C      -0.407250    1.169610   -0.000030
  C      -0.490340   -1.252500    0.000010
  C      -1.799760    1.210440   -0.000060
  C      -1.882340   -1.197580   -0.000020
  C      -2.540580    0.030440   -0.000060
  H       0.173020    2.080980   -0.000030
  H       0.026310   -2.201380    0.000040
  H      -2.302820    2.167800   -0.000090
  H      -2.449800   -2.118200   -0.000010
  H      -3.620870    0.067510   -0.000080
--
0 1
  O       6.331040   -0.213640    0.000120
  H       6.758030    0.197960    0.754200
  H       6.758030    0.197960   -0.753970
units angstrom
no_reorient
symmetry c1
}

set {
scf_type DF
basis aug-cc-pvtz
freeze_core True
guess SAD
}
energy('sapt2+')
--------------------------------------------------------------------------

  //              Dimer HF             //
    Molecular point group: c1
  Charge       = 0
  Multiplicity = 1
  Basis Set: AUG-CC-PVTZ
    Blend: AUG-CC-PVTZ
  Basis Set: (AUG-CC-PVTZ AUX)
    Blend: AUG-CC-PVTZ-JKFIT
  @DF-RHF Final Energy: -2878.71856263419522
    Total Energy =                      -2878.7185626341952229
  //            Monomer A HF           //
    Molecular point group: c1
  Multiplicity = 1
  Basis Set: AUG-CC-PVTZ
    Blend: AUG-CC-PVTZ
  Basis Set: (AUG-CC-PVTZ AUX)
    Blend: AUG-CC-PVTZ-JKFIT
  @DF-RHF Final Energy: -2802.65806857779535
    Total Energy =                      -2802.6580685777953477
  //            Monomer B HF           //
    Molecular point group: c1

    Geometry (in Angstrom), charge = 0, multiplicity = 1:

       Center              X                  Y                   Z               Mass
    ------------   -----------------  -----------------  -----------------  -----------------
      Gh(BR)          1.019752769566    -0.047187958395     0.000026284285    78.918337600000
      Gh(C)          -0.861677230434     0.019172041605    -0.000013715715    12.000000000000
      Gh(C)          -1.507097230434     1.253782041605    -0.000053715715    12.000000000000
      Gh(C)          -1.590187230434    -1.168327958395    -0.000013715715    12.000000000000
      Gh(C)          -2.899607230434     1.294612041605    -0.000083715715    12.000000000000
      Gh(C)          -2.982187230434    -1.113407958395    -0.000043715715    12.000000000000
      Gh(C)          -3.640427230434     0.114612041605    -0.000083715715    12.000000000000
      Gh(H)          -0.926827230434     2.165152041605    -0.000053715715     1.007825032230
      Gh(H)          -1.073537230434    -2.117207958395     0.000016284285     1.007825032230
      Gh(H)          -3.402667230434     2.251972041605    -0.000113715715     1.007825032230
      Gh(H)          -3.549647230434    -2.034027958395    -0.000033715715     1.007825032230
      Gh(H)          -4.720717230434     0.151682041605    -0.000103715715     1.007825032230
         O            5.231192769566    -0.129467958395     0.000096284285    15.994914619570
         H            5.658182769566     0.282132041605     0.754176284285     1.007825032230
         H            5.658182769566     0.282132041605    -0.753993715715     1.007825032230

  Charge       = 0
  Multiplicity = 1
  Basis Set: AUG-CC-PVTZ
    Blend: AUG-CC-PVTZ
  Basis Set: (AUG-CC-PVTZ AUX)
    Blend: AUG-CC-PVTZ-JKFIT

    Orbital Energies [Eh]
    ---------------------

    Doubly Occupied:

       1A    -20.567965     2A     -1.353150     3A     -0.714966
       4A     -0.586274     5A     -0.510447

  @DF-RHF Final Energy:   -76.06039384858219

   => Energetics <=

    Nuclear Repulsion Energy =              9.1763411347963189
    One-Electron Energy =                -123.0078630151006109
    Two-Electron Energy =                  37.7711280317220996
    Total Energy =                        -76.0603938485821942

  Dipole Moment: [D]
     X:     1.4404      Y:     1.3869      Z:    -0.0000     Total:     1.9995

    SAPT Results
  --------------------------------------------------------------------------------------------------------
    Electrostatics                 -0.17086469 [mEh]      -0.10721921 [kcal/mol]      -0.44860519 [kJ/mol]
      Elst10,r                     -0.07978896 [mEh]      -0.05006833 [kcal/mol]      -0.20948589 [kJ/mol]
      Elst12,r                     -0.09107573 [mEh]      -0.05715089 [kcal/mol]      -0.23911931 [kJ/mol]

    Exchange                        0.11603341 [mEh]       0.07281206 [kcal/mol]       0.30464566 [kJ/mol]
      Exch10                        0.09028917 [mEh]       0.05665731 [kcal/mol]       0.23705418 [kJ/mol]
      Exch10(S^2)                   0.09028163 [mEh]       0.05665258 [kcal/mol]       0.23703438 [kJ/mol]
      Exch11(S^2)                  -0.00033061 [mEh]      -0.00020746 [kcal/mol]      -0.00086801 [kJ/mol]
      Exch12(S^2)                   0.02607485 [mEh]       0.01636221 [kcal/mol]       0.06845950 [kJ/mol]

    Induction                      -0.11872405 [mEh]      -0.07450046 [kcal/mol]      -0.31170995 [kJ/mol]
      Ind20,r                      -0.13986998 [mEh]      -0.08776974 [kcal/mol]      -0.36722859 [kJ/mol]
      Ind22                        -0.01039556 [mEh]      -0.00652331 [kcal/mol]      -0.02729353 [kJ/mol]
      Exch-Ind20,r                  0.03201614 [mEh]       0.02009043 [kcal/mol]       0.08405836 [kJ/mol]
      Exch-Ind22                    0.00237954 [mEh]       0.00149318 [kcal/mol]       0.00624747 [kJ/mol]
      delta HF,r (2)               -0.00285418 [mEh]      -0.00179103 [kcal/mol]      -0.00749366 [kJ/mol]

    Dispersion                     -0.52559668 [mEh]      -0.32981690 [kcal/mol]      -1.37995390 [kJ/mol]
      Disp20                       -0.50253112 [mEh]      -0.31534304 [kcal/mol]      -1.31939526 [kJ/mol]
      Disp21                        0.05925856 [mEh]       0.03718531 [kcal/mol]       0.15558332 [kJ/mol]
      Disp22 (SDQ)                  0.00490649 [mEh]       0.00307887 [kcal/mol]       0.01288199 [kJ/mol]
      Disp22 (T)                   -0.09261983 [mEh]      -0.05811982 [kcal/mol]      -0.24317334 [kJ/mol]
      Est. Disp22 (T)              -0.09997816 [mEh]      -0.06273724 [kcal/mol]      -0.26249261 [kJ/mol]
      Exch-Disp20                   0.01274754 [mEh]       0.00799920 [kcal/mol]       0.03346866 [kJ/mol]

  Total HF                         -0.10020782 [mEh]      -0.06288135 [kcal/mol]      -0.26309559 [kJ/mol]
  Total SAPT0                      -0.58999139 [mEh]      -0.37022519 [kcal/mol]      -1.54902219 [kJ/mol]
  Total SAPT2                      -0.66333891 [mEh]      -0.41625145 [kcal/mol]      -1.74159607 [kJ/mol]
  Total SAPT2+                     -0.69915202 [mEh]      -0.43872452 [kcal/mol]      -1.83562338 [kJ/mol]

  Special recipe for scaled SAPT0 (see Manual):
    Electrostatics sSAPT0          -0.07978896 [mEh]      -0.05006833 [kcal/mol]      -0.20948589 [kJ/mol]
    Exchange sSAPT0                 0.09028917 [mEh]       0.05665731 [kcal/mol]       0.23705418 [kJ/mol]
    Induction sSAPT0               -0.11070000 [mEh]      -0.06946530 [kcal/mol]      -0.29064282 [kJ/mol]
    Dispersion sSAPT0              -0.48978038 [mEh]      -0.30734183 [kcal/mol]      -1.28591821 [kJ/mol]
  Total sSAPT0                     -0.58998017 [mEh]      -0.37021815 [kcal/mol]      -1.54899273 [kJ/mol]
  --------------------------------------------------------------------------------------------------------

*** Psi4 exiting successfully. Buy a developer a beer!
