                               Psi4 1.4a2.dev224

  ==> Input File <==

--------------------------------------------------------------------------
#Generated by lconvert.py for sapt job

memory 50 GB

molecule  {
0 1
  F       0.939940    0.557600    1.462150
  F      -0.941880   -0.581470    1.457720
  C      -0.007060   -0.004990    2.253220
  H      -0.481150    0.775970    2.840210
  H       0.457900   -0.775480    2.860990
--
0 1
  F       0.569220   -0.916250   -4.375640
  F      -0.569080    0.967510   -4.334390
  C       0.008900    0.013610   -3.562370
  H       0.789550    0.472290   -2.963540
  H      -0.758380   -0.463150   -2.960400
units angstrom
no_reorient
symmetry c1
}

set {
scf_type DF
basis aug-cc-pvtz
freeze_core True
guess SAD
}
energy('sapt2+')
--------------------------------------------------------------------------

  //              Dimer HF             //
    Molecular point group: c1
  Charge       = 0
  Multiplicity = 1
  Basis Set: AUG-CC-PVTZ
    Blend: AUG-CC-PVTZ
  Basis Set: (AUG-CC-PVTZ AUX)
    Blend: AUG-CC-PVTZ-JKFIT
  @DF-RHF Final Energy:  -475.99947317638976
    Total Energy =                       -475.9994731763897562
  //            Monomer A HF           //
    Molecular point group: c1
  Multiplicity = 1
  Basis Set: AUG-CC-PVTZ
    Blend: AUG-CC-PVTZ
  Basis Set: (AUG-CC-PVTZ AUX)
    Blend: AUG-CC-PVTZ-JKFIT
  @DF-RHF Final Energy:  -237.99924608107668
    Total Energy =                       -237.9992460810766772
  //            Monomer B HF           //
    Molecular point group: c1

    Geometry (in Angstrom), charge = 0, multiplicity = 1:

       Center              X                  Y                   Z               Mass
    ------------   -----------------  -----------------  -----------------  -----------------
      Gh(F)           0.939979751549     0.551510000972     2.672803041074    18.998403162730
      Gh(F)          -0.941840248451    -0.587559999028     2.668373041074    18.998403162730
      Gh(C)          -0.007020248451    -0.011079999028     3.463873041074    12.000000000000
      Gh(H)          -0.481110248451     0.769880000972     4.050863041074     1.007825032230
      Gh(H)           0.457939751549    -0.781569999028     4.071643041074     1.007825032230
         F            0.569259751549    -0.922339999028    -3.164986958926    18.998403162730
         F           -0.569040248451     0.961420000972    -3.123736958926    18.998403162730
         C            0.008939751549     0.007520000972    -2.351716958926    12.000000000000
         H            0.789589751549     0.466200000972    -1.752886958926     1.007825032230
         H           -0.758340248451    -0.469239999028    -1.749746958926     1.007825032230

  Charge       = 0
  Multiplicity = 1
  Basis Set: AUG-CC-PVTZ
    Blend: AUG-CC-PVTZ
  Basis Set: (AUG-CC-PVTZ AUX)
    Blend: AUG-CC-PVTZ-JKFIT

    Orbital Energies [Eh]
    ---------------------

    Doubly Occupied:

       1A    -26.313925     2A    -26.313905     3A    -11.406727
       4A     -1.662234     5A     -1.602295     6A     -0.972807
       7A     -0.779538     8A     -0.771242     9A     -0.755811
      10A     -0.667850    11A     -0.633783    12A     -0.623613
      13A     -0.538379

  @DF-RHF Final Energy:  -237.99920029224862

   => Energetics <=

    Nuclear Repulsion Energy =             77.3064507242497427
    One-Electron Energy =                -484.5270787520293538
    Two-Electron Energy =                 169.2214277355310230
    Total Energy =                       -237.9992002922486165

  Dipole Moment: [D]
     X:     0.0245      Y:    -0.0334      Z:     2.2028     Total:     2.2032

    SAPT Results
  --------------------------------------------------------------------------------------------------------
    Electrostatics                 -0.81718830 [mEh]      -0.51279340 [kcal/mol]      -2.14552760 [kJ/mol]
      Elst10,r                     -1.00185862 [mEh]      -0.62867578 [kcal/mol]      -2.63037945 [kJ/mol]
      Elst12,r                      0.18467032 [mEh]       0.11588237 [kcal/mol]       0.48485185 [kJ/mol]

    Exchange                        0.00261922 [mEh]       0.00164358 [kcal/mol]       0.00687676 [kJ/mol]
      Exch10                        0.00182366 [mEh]       0.00114437 [kcal/mol]       0.00478803 [kJ/mol]
      Exch10(S^2)                   0.00182366 [mEh]       0.00114437 [kcal/mol]       0.00478802 [kJ/mol]
      Exch11(S^2)                  -0.00008141 [mEh]      -0.00005108 [kcal/mol]      -0.00021373 [kJ/mol]
      Exch12(S^2)                   0.00087696 [mEh]       0.00055030 [kcal/mol]       0.00230246 [kJ/mol]

    Induction                      -0.02413806 [mEh]      -0.01514686 [kcal/mol]      -0.06337448 [kJ/mol]
      Ind20,r                      -0.02619292 [mEh]      -0.01643631 [kcal/mol]      -0.06876951 [kJ/mol]
      Ind22                         0.00264935 [mEh]       0.00166249 [kcal/mol]       0.00695586 [kJ/mol]
      Exch-Ind20,r                  0.00019084 [mEh]       0.00011976 [kcal/mol]       0.00050106 [kJ/mol]
      Exch-Ind22                   -0.00001930 [mEh]      -0.00001211 [kcal/mol]      -0.00005068 [kJ/mol]
      delta HF,r (2)               -0.00076603 [mEh]      -0.00048069 [kcal/mol]      -0.00201120 [kJ/mol]

    Dispersion                     -0.15399594 [mEh]      -0.09663391 [kcal/mol]      -0.40431630 [kJ/mol]
      Disp20                       -0.13293503 [mEh]      -0.08341799 [kcal/mol]      -0.34902088 [kJ/mol]
      Disp21                        0.00451561 [mEh]       0.00283359 [kcal/mol]       0.01185572 [kJ/mol]
      Disp22 (SDQ)                 -0.00191847 [mEh]      -0.00120386 [kcal/mol]      -0.00503694 [kJ/mol]
      Disp22 (T)                   -0.02330924 [mEh]      -0.01462677 [kcal/mol]      -0.06119841 [kJ/mol]
      Est. Disp22 (T)              -0.02388388 [mEh]      -0.01498736 [kcal/mol]      -0.06270711 [kJ/mol]
      Exch-Disp20                   0.00022583 [mEh]       0.00014171 [kcal/mol]       0.00059291 [kJ/mol]

  Total HF                         -1.02680306 [mEh]      -0.64432865 [kcal/mol]      -2.69587107 [kJ/mol]
  Total SAPT0                      -1.15951227 [mEh]      -0.72760493 [kcal/mol]      -3.04429904 [kJ/mol]
  Total SAPT2                      -0.97141635 [mEh]      -0.60957296 [kcal/mol]      -2.55045328 [kJ/mol]
  Total SAPT2+                     -0.99270309 [mEh]      -0.62293060 [kcal/mol]      -2.60634162 [kJ/mol]

  Special recipe for scaled SAPT0 (see Manual):
    Electrostatics sSAPT0          -1.00185862 [mEh]      -0.62867578 [kcal/mol]      -2.63037945 [kJ/mol]
    Exchange sSAPT0                 0.00182366 [mEh]       0.00114437 [kcal/mol]       0.00478803 [kJ/mol]
    Induction sSAPT0               -0.02676811 [mEh]      -0.01679724 [kcal/mol]      -0.07027966 [kJ/mol]
    Dispersion sSAPT0              -0.13270920 [mEh]      -0.08327628 [kcal/mol]      -0.34842796 [kJ/mol]
  Total sSAPT0                     -1.15951227 [mEh]      -0.72760493 [kcal/mol]      -3.04429904 [kJ/mol]
  --------------------------------------------------------------------------------------------------------

*** Psi4 exiting successfully. Buy a developer a beer!
