                               Psi4 1.4a2.dev224

  ==> Input File <==

--------------------------------------------------------------------------
#Generated by lconvert.py for sapt job

memory 50 GB

molecule  {
0 1
  F       0.939940    0.557600    1.462150
  F      -0.941880   -0.581470    1.457720
  C      -0.007060   -0.004990    2.253220
  H      -0.481150    0.775970    2.840210
  H       0.457900   -0.775480    2.860990
--
0 1
  F       0.570000   -0.911680   -5.208170
  F      -0.568290    0.972080   -5.166920
  C       0.009680    0.018170   -4.394900
  H       0.790340    0.476850   -3.796070
  H      -0.757590   -0.458590   -3.792930
units angstrom
no_reorient
symmetry c1
}

set {
scf_type DF
basis aug-cc-pvtz
freeze_core True
guess SAD
}
energy('sapt2+')
--------------------------------------------------------------------------

  //              Dimer HF             //
    Molecular point group: c1
  Charge       = 0
  Multiplicity = 1
  Basis Set: AUG-CC-PVTZ
    Blend: AUG-CC-PVTZ
  Basis Set: (AUG-CC-PVTZ AUX)
    Blend: AUG-CC-PVTZ-JKFIT
  @DF-RHF Final Energy:  -475.99913409131966
    Total Energy =                       -475.9991340913196609
  //            Monomer A HF           //
    Molecular point group: c1
  Multiplicity = 1
  Basis Set: AUG-CC-PVTZ
    Blend: AUG-CC-PVTZ
  Basis Set: (AUG-CC-PVTZ AUX)
    Blend: AUG-CC-PVTZ-JKFIT
  @DF-RHF Final Energy:  -237.99923790122909
    Total Energy =                       -237.9992379012290939
  //            Monomer B HF           //
    Molecular point group: c1

    Geometry (in Angstrom), charge = 0, multiplicity = 1:

       Center              X                  Y                   Z               Mass
    ------------   -----------------  -----------------  -----------------  -----------------
      Gh(F)           0.939587731451     0.549226348308     3.089068041074    18.998403162730
      Gh(F)          -0.942232268549    -0.589843651692     3.084638041074    18.998403162730
      Gh(C)          -0.007412268549    -0.013363651692     3.880138041074    12.000000000000
      Gh(H)          -0.481502268549     0.767596348308     4.467128041074     1.007825032230
      Gh(H)           0.457547731451    -0.783853651692     4.487908041074     1.007825032230
         F            0.569647731451    -0.920053651692    -3.581251958926    18.998403162730
         F           -0.568642268549     0.963706348308    -3.540001958926    18.998403162730
         C            0.009327731451     0.009796348308    -2.767981958926    12.000000000000
         H            0.789987731451     0.468476348308    -2.169151958926     1.007825032230
         H           -0.757942268549    -0.466963651692    -2.166011958926     1.007825032230

  Charge       = 0
  Multiplicity = 1
  Basis Set: AUG-CC-PVTZ
    Blend: AUG-CC-PVTZ
  Basis Set: (AUG-CC-PVTZ AUX)
    Blend: AUG-CC-PVTZ-JKFIT

    Orbital Energies [Eh]
    ---------------------

    Doubly Occupied:

       1A    -26.313929     2A    -26.313909     3A    -11.406728
       4A     -1.662238     5A     -1.602299     6A     -0.972809
       7A     -0.779540     8A     -0.771244     9A     -0.755814
      10A     -0.667852    11A     -0.633785    12A     -0.623616
      13A     -0.538380

  @DF-RHF Final Energy:  -237.99919693460487

   => Energetics <=

    Nuclear Repulsion Energy =             77.3065657063155953
    One-Electron Energy =                -484.5272352205724928
    Two-Electron Energy =                 169.2214725796520156
    Total Energy =                       -237.9991969346048677

  Dipole Moment: [D]
     X:     0.0245      Y:    -0.0335      Z:     2.2028     Total:     2.2032

    SAPT Results
  --------------------------------------------------------------------------------------------------------
    Electrostatics                 -0.55916045 [mEh]      -0.35087848 [kcal/mol]      -1.46807555 [kJ/mol]
      Elst10,r                     -0.68735001 [mEh]      -0.43131864 [kcal/mol]      -1.80463720 [kJ/mol]
      Elst12,r                      0.12818956 [mEh]       0.08044016 [kcal/mol]       0.33656165 [kJ/mol]

    Exchange                        0.00009744 [mEh]       0.00006114 [kcal/mol]       0.00025582 [kJ/mol]
      Exch10                        0.00006295 [mEh]       0.00003950 [kcal/mol]       0.00016528 [kJ/mol]
      Exch10(S^2)                   0.00006295 [mEh]       0.00003950 [kcal/mol]       0.00016528 [kJ/mol]
      Exch11(S^2)                  -0.00000356 [mEh]      -0.00000223 [kcal/mol]      -0.00000935 [kJ/mol]
      Exch12(S^2)                   0.00003804 [mEh]       0.00002387 [kcal/mol]       0.00009989 [kJ/mol]

    Induction                      -0.01068854 [mEh]      -0.00670716 [kcal/mol]      -0.02806275 [kJ/mol]
      Ind20,r                      -0.01174330 [mEh]      -0.00736903 [kcal/mol]      -0.03083203 [kJ/mol]
      Ind22                         0.00128062 [mEh]       0.00080360 [kcal/mol]       0.00336228 [kJ/mol]
      Exch-Ind20,r                  0.00000671 [mEh]       0.00000421 [kcal/mol]       0.00001762 [kJ/mol]
      Exch-Ind22                   -0.00000073 [mEh]      -0.00000046 [kcal/mol]      -0.00000192 [kJ/mol]
      delta HF,r (2)               -0.00023184 [mEh]      -0.00014548 [kcal/mol]      -0.00060870 [kJ/mol]

    Dispersion                     -0.06202436 [mEh]      -0.03892087 [kcal/mol]      -0.16284494 [kJ/mol]
      Disp20                       -0.05400758 [mEh]      -0.03389027 [kcal/mol]      -0.14179689 [kJ/mol]
      Disp21                        0.00247013 [mEh]       0.00155003 [kcal/mol]       0.00648533 [kJ/mol]
      Disp22 (SDQ)                 -0.00069934 [mEh]      -0.00043884 [kcal/mol]      -0.00183612 [kJ/mol]
      Disp22 (T)                   -0.00964778 [mEh]      -0.00605408 [kcal/mol]      -0.02533025 [kJ/mol]
      Est. Disp22 (T)              -0.00979692 [mEh]      -0.00614766 [kcal/mol]      -0.02572180 [kJ/mol]
      Exch-Disp20                   0.00000935 [mEh]       0.00000586 [kcal/mol]       0.00002454 [kJ/mol]

  Total HF                         -0.69925549 [mEh]      -0.43878944 [kcal/mol]      -1.83589502 [kJ/mol]
  Total SAPT0                      -0.75325372 [mEh]      -0.47267385 [kcal/mol]      -1.97766738 [kJ/mol]
  Total SAPT2                      -0.62374979 [mEh]      -0.39140890 [kcal/mol]      -1.63765484 [kJ/mol]
  Total SAPT2+                     -0.63177591 [mEh]      -0.39644537 [kcal/mol]      -1.65872742 [kJ/mol]

  Special recipe for scaled SAPT0 (see Manual):
    Electrostatics sSAPT0          -0.68735001 [mEh]      -0.43131864 [kcal/mol]      -1.80463720 [kJ/mol]
    Exchange sSAPT0                 0.00006295 [mEh]       0.00003950 [kcal/mol]       0.00016528 [kJ/mol]
    Induction sSAPT0               -0.01196843 [mEh]      -0.00751030 [kcal/mol]      -0.03142311 [kJ/mol]
    Dispersion sSAPT0              -0.05399824 [mEh]      -0.03388441 [kcal/mol]      -0.14177236 [kJ/mol]
  Total sSAPT0                     -0.75325372 [mEh]      -0.47267385 [kcal/mol]      -1.97766738 [kJ/mol]
  --------------------------------------------------------------------------------------------------------

*** Psi4 exiting successfully. Buy a developer a beer!
