                               Psi4 1.4a2.dev224

  ==> Input File <==

--------------------------------------------------------------------------
#Generated by lconvert.py for sapt job

memory 50 GB

molecule  {
0 1
  F       0.939940    0.557600    1.462150
  F      -0.941880   -0.581470    1.457720
  C      -0.007060   -0.004990    2.253220
  H      -0.481150    0.775970    2.840210
  H       0.457900   -0.775480    2.860990
--
0 1
  F       0.568430   -0.920820   -3.543110
  F      -0.569870    0.962950   -3.501860
  C       0.008110    0.009040   -2.729840
  H       0.788770    0.467720   -2.131010
  H      -0.759170   -0.467720   -2.127870
units angstrom
no_reorient
symmetry c1
}

set {
scf_type DF
basis aug-cc-pvtz
freeze_core True
guess SAD
}
energy('sapt2+')
--------------------------------------------------------------------------

  //              Dimer HF             //
    Molecular point group: c1
  Charge       = 0
  Multiplicity = 1
  Basis Set: AUG-CC-PVTZ
    Blend: AUG-CC-PVTZ
  Basis Set: (AUG-CC-PVTZ AUX)
    Blend: AUG-CC-PVTZ-JKFIT
  @DF-RHF Final Energy:  -476.00007100622406
    Total Energy =                       -476.0000710062240614
  //            Monomer A HF           //
    Molecular point group: c1
  Multiplicity = 1
  Basis Set: AUG-CC-PVTZ
    Blend: AUG-CC-PVTZ
  Basis Set: (AUG-CC-PVTZ AUX)
    Blend: AUG-CC-PVTZ-JKFIT
  @DF-RHF Final Energy:  -237.99927808771378
    Total Energy =                       -237.9992780877137761
  //            Monomer B HF           //
    Molecular point group: c1

    Geometry (in Angstrom), charge = 0, multiplicity = 1:

       Center              X                  Y                   Z               Mass
    ------------   -----------------  -----------------  -----------------  -----------------
      Gh(F)           0.940374654666     0.553793174640     2.256538041074    18.998403162730
      Gh(F)          -0.941445345334    -0.585276825360     2.252108041074    18.998403162730
      Gh(C)          -0.006625345334    -0.008796825360     3.047608041074    12.000000000000
      Gh(H)          -0.480715345334     0.772163174640     3.634598041074     1.007825032230
      Gh(H)           0.458334654666    -0.779286825360     3.655378041074     1.007825032230
         F            0.568864654666    -0.924626825360    -2.748721958926    18.998403162730
         F           -0.569435345334     0.959143174640    -2.707471958926    18.998403162730
         C            0.008544654666     0.005233174640    -1.935451958926    12.000000000000
         H            0.789204654666     0.463913174640    -1.336621958926     1.007825032230
         H           -0.758735345334    -0.471526825360    -1.333481958926     1.007825032230

  Charge       = 0
  Multiplicity = 1
  Basis Set: AUG-CC-PVTZ
    Blend: AUG-CC-PVTZ
  Basis Set: (AUG-CC-PVTZ AUX)
    Blend: AUG-CC-PVTZ-JKFIT

    Orbital Energies [Eh]
    ---------------------

    Doubly Occupied:

       1A    -26.313910     2A    -26.313889     3A    -11.406726
       4A     -1.662222     5A     -1.602285     6A     -0.972800
       7A     -0.779531     8A     -0.771236     9A     -0.755800
      10A     -0.667842    11A     -0.633777    12A     -0.623604
      13A     -0.538375

  @DF-RHF Final Energy:  -237.99921677190173

   => Energetics <=

    Nuclear Repulsion Energy =             77.3062239630270227
    One-Electron Energy =                -484.5268864427348490
    Two-Electron Energy =                 169.2214457078060832
    Total Energy =                       -237.9992167719017289

  Dipole Moment: [D]
     X:     0.0245      Y:    -0.0334      Z:     2.2024     Total:     2.2028

    SAPT Results
  --------------------------------------------------------------------------------------------------------
    Electrostatics                 -1.28144290 [mEh]      -0.80411756 [kcal/mol]      -3.36442786 [kJ/mol]
      Elst10,r                     -1.55558116 [mEh]      -0.97614191 [kcal/mol]      -4.08417776 [kJ/mol]
      Elst12,r                      0.27413826 [mEh]       0.17202435 [kcal/mol]       0.71974990 [kJ/mol]

    Exchange                        0.06628080 [mEh]       0.04159183 [kcal/mol]       0.17402021 [kJ/mol]
      Exch10                        0.05030923 [mEh]       0.03156952 [kcal/mol]       0.13208686 [kJ/mol]
      Exch10(S^2)                   0.05030797 [mEh]       0.03156873 [kcal/mol]       0.13208357 [kJ/mol]
      Exch11(S^2)                  -0.00152391 [mEh]      -0.00095627 [kcal/mol]      -0.00400104 [kJ/mol]
      Exch12(S^2)                   0.01749548 [mEh]       0.01097858 [kcal/mol]       0.04593439 [kJ/mol]

    Induction                      -0.06756151 [mEh]      -0.04239549 [kcal/mol]      -0.17738271 [kJ/mol]
      Ind20,r                      -0.07272431 [mEh]      -0.04563519 [kcal/mol]      -0.19093764 [kJ/mol]
      Ind22                         0.00366796 [mEh]       0.00230168 [kcal/mol]       0.00963022 [kJ/mol]
      Exch-Ind20,r                  0.00703422 [mEh]       0.00441404 [kcal/mol]       0.01846835 [kJ/mol]
      Exch-Ind22                   -0.00035478 [mEh]      -0.00022263 [kcal/mol]      -0.00093148 [kJ/mol]
      delta HF,r (2)               -0.00518460 [mEh]      -0.00325338 [kcal/mol]      -0.01361216 [kJ/mol]

    Dispersion                     -0.46757112 [mEh]      -0.29340531 [kcal/mol]      -1.22760780 [kJ/mol]
      Disp20                       -0.40065537 [mEh]      -0.25141504 [kcal/mol]      -1.05192054 [kJ/mol]
      Disp21                        0.00598662 [mEh]       0.00375666 [kcal/mol]       0.01571787 [kJ/mol]
      Disp22 (SDQ)                 -0.00733170 [mEh]      -0.00460071 [kcal/mol]      -0.01924938 [kJ/mol]
      Disp22 (T)                   -0.06728806 [mEh]      -0.04222390 [kcal/mol]      -0.17666478 [kJ/mol]
      Est. Disp22 (T)              -0.07081624 [mEh]      -0.04443786 [kcal/mol]      -0.18592803 [kJ/mol]
      Exch-Disp20                   0.00524558 [mEh]       0.00329165 [kcal/mol]       0.01377227 [kJ/mol]

  Total HF                         -1.57614661 [mEh]      -0.98904693 [kcal/mol]      -4.13817235 [kJ/mol]
  Total SAPT0                      -1.97155640 [mEh]      -1.23717032 [kcal/mol]      -5.17632062 [kJ/mol]
  Total SAPT2                      -1.67813340 [mEh]      -1.05304461 [kcal/mol]      -4.40593863 [kJ/mol]
  Total SAPT2+                     -1.75029472 [mEh]      -1.09832652 [kcal/mol]      -4.59539816 [kJ/mol]

  Special recipe for scaled SAPT0 (see Manual):
    Electrostatics sSAPT0          -1.55558116 [mEh]      -0.97614191 [kcal/mol]      -4.08417776 [kJ/mol]
    Exchange sSAPT0                 0.05030923 [mEh]       0.03156952 [kcal/mol]       0.13208686 [kJ/mol]
    Induction sSAPT0               -0.07087415 [mEh]      -0.04447420 [kcal/mol]      -0.18608007 [kJ/mol]
    Dispersion sSAPT0              -0.39540940 [mEh]      -0.24812314 [kcal/mol]      -1.03814724 [kJ/mol]
  Total sSAPT0                     -1.97155548 [mEh]      -1.23716974 [kcal/mol]      -5.17631821 [kJ/mol]
  --------------------------------------------------------------------------------------------------------

*** Psi4 exiting successfully. Buy a developer a beer!
