                               Psi4 1.4a2.dev224

  ==> Input File <==

--------------------------------------------------------------------------
#Generated by lconvert.py for sapt job

memory 50 GB

molecule  {
0 1
 Cl       0.345460    1.418920    1.445490
 Cl      -0.362080   -1.434280    1.443480
  C      -0.013030   -0.007170    2.429450
  H      -0.885410    0.208440    3.032030
  H       0.853360   -0.222190    3.040790
--
0 1
 Cl      -0.358780   -1.408920   -4.193670
 Cl       0.344100    1.446450   -4.191290
  C       0.017470    0.012010   -3.210390
  H       0.898430   -0.206410   -2.622150
  H      -0.832270    0.221690   -2.575120
units angstrom
no_reorient
symmetry c1
}

set {
scf_type DF
basis aug-cc-pvtz
freeze_core True
guess SAD
}
energy('sapt2+')
--------------------------------------------------------------------------

  //              Dimer HF             //
    Molecular point group: c1
  Charge       = 0
  Multiplicity = 1
  Basis Set: AUG-CC-PVTZ
    Blend: AUG-CC-PVTZ
  Basis Set: (AUG-CC-PVTZ AUX)
    Blend: AUG-CC-PVTZ-JKFIT
  @DF-RHF Final Energy: -1916.15943415020729
    Total Energy =                      -1916.1594341502072893
  //            Monomer A HF           //
    Molecular point group: c1
  Multiplicity = 1
  Basis Set: AUG-CC-PVTZ
    Blend: AUG-CC-PVTZ
  Basis Set: (AUG-CC-PVTZ AUX)
    Blend: AUG-CC-PVTZ-JKFIT
  @DF-RHF Final Energy:  -958.07923296033857
    Total Energy =                       -958.0792329603385724
  //            Monomer B HF           //
    Molecular point group: c1

    Geometry (in Angstrom), charge = 0, multiplicity = 1:

       Center              X                  Y                   Z               Mass
    ------------   -----------------  -----------------  -----------------  -----------------
      Gh(CL)          0.351456592822     1.413947706564     2.640661666580    34.968852682000
      Gh(CL)         -0.356083407178    -1.439252293436     2.638651666580    34.968852682000
      Gh(C)          -0.007033407178    -0.012142293436     3.624621666580    12.000000000000
      Gh(H)          -0.879413407178     0.203467706564     4.227201666580     1.007825032230
      Gh(H)           0.859356592822    -0.227162293436     4.235961666580     1.007825032230
         CL          -0.352783407178    -1.413892293436    -2.998498333420    34.968852682000
         CL           0.350096592822     1.441477706564    -2.996118333420    34.968852682000
         C            0.023466592822     0.007037706564    -2.015218333420    12.000000000000
         H            0.904426592822    -0.211382293436    -1.426978333420     1.007825032230
         H           -0.826273407178     0.216717706564    -1.379948333420     1.007825032230

  Charge       = 0
  Multiplicity = 1
  Basis Set: AUG-CC-PVTZ
    Blend: AUG-CC-PVTZ
  Basis Set: (AUG-CC-PVTZ AUX)
    Blend: AUG-CC-PVTZ-JKFIT

    Orbital Energies [Eh]
    ---------------------

    Doubly Occupied:

       1A   -104.850325     2A   -104.850303     3A    -11.365423
       4A    -10.574743     5A    -10.574715     6A     -8.041598
       7A     -8.041571     8A     -8.039629     9A     -8.039603
      10A     -8.039535    11A     -8.039509    12A     -1.193894
      13A     -1.097269    14A     -0.897311    15A     -0.677341
      16A     -0.617951    17A     -0.585946    18A     -0.474343
      19A     -0.471680    20A     -0.448273    21A     -0.446501

  @DF-RHF Final Energy:  -958.07922752750164

   => Energetics <=

    Nuclear Repulsion Energy =            134.5678677692196175
    One-Electron Energy =               -1590.5592632389002574
    Two-Electron Energy =                 497.9121679421789395
    Total Energy =                       -958.0792275275016436

  Dipole Moment: [D]
     X:     0.0468      Y:    -0.0120      Z:     1.8372     Total:     1.8378

    SAPT Results
  --------------------------------------------------------------------------------------------------------
    Electrostatics                 -0.80562698 [mEh]      -0.50553856 [kcal/mol]      -2.11517335 [kJ/mol]
      Elst10,r                     -0.95363032 [mEh]      -0.59841206 [kcal/mol]      -2.50375605 [kJ/mol]
      Elst12,r                      0.14800333 [mEh]       0.09287349 [kcal/mol]       0.38858270 [kJ/mol]

    Exchange                        0.06714416 [mEh]       0.04213360 [kcal/mol]       0.17628698 [kJ/mol]
      Exch10                        0.05847651 [mEh]       0.03669457 [kcal/mol]       0.15353006 [kJ/mol]
      Exch10(S^2)                   0.05847236 [mEh]       0.03669196 [kcal/mol]       0.15351915 [kJ/mol]
      Exch11(S^2)                   0.00056450 [mEh]       0.00035423 [kcal/mol]       0.00148210 [kJ/mol]
      Exch12(S^2)                   0.00810315 [mEh]       0.00508480 [kcal/mol]       0.02127482 [kJ/mol]

    Induction                      -0.07165927 [mEh]      -0.04496687 [kcal/mol]      -0.18814138 [kJ/mol]
      Ind20,r                      -0.08275256 [mEh]      -0.05192802 [kcal/mol]      -0.21726682 [kJ/mol]
      Ind22                         0.00801397 [mEh]       0.00502884 [kcal/mol]       0.02104066 [kJ/mol]
      Exch-Ind20,r                  0.01202643 [mEh]       0.00754670 [kcal/mol]       0.03157538 [kJ/mol]
      Exch-Ind22                   -0.00116467 [mEh]      -0.00073084 [kcal/mol]      -0.00305784 [kJ/mol]
      delta HF,r (2)               -0.00778243 [mEh]      -0.00488355 [kcal/mol]      -0.02043277 [kJ/mol]

    Dispersion                     -0.78827449 [mEh]      -0.49464971 [kcal/mol]      -2.06961438 [kJ/mol]
      Disp20                       -0.84076610 [mEh]      -0.52758869 [kcal/mol]      -2.20743109 [kJ/mol]
      Disp21                        0.18360938 [mEh]       0.11521662 [kcal/mol]       0.48206635 [kJ/mol]
      Disp22 (SDQ)                  0.01461185 [mEh]       0.00916908 [kcal/mol]       0.03836342 [kJ/mol]
      Disp22 (T)                   -0.14976900 [mEh]      -0.09398147 [kcal/mol]      -0.39321845 [kJ/mol]
      Est. Disp22 (T)              -0.15490302 [mEh]      -0.09720311 [kcal/mol]      -0.40669781 [kJ/mol]
      Exch-Disp20                   0.00917340 [mEh]       0.00575639 [kcal/mol]       0.02408476 [kJ/mol]

  Total HF                         -0.97366237 [mEh]      -0.61098236 [kcal/mol]      -2.55635019 [kJ/mol]
  Total SAPT0                      -1.80525507 [mEh]      -1.13281466 [kcal/mol]      -4.73969653 [kJ/mol]
  Total SAPT2                      -1.64173479 [mEh]      -1.03020413 [kcal/mol]      -4.31037409 [kJ/mol]
  Total SAPT2+                     -1.59841657 [mEh]      -1.00302154 [kcal/mol]      -4.19664213 [kJ/mol]

  Special recipe for scaled SAPT0 (see Manual):
    Electrostatics sSAPT0          -0.95363032 [mEh]      -0.59841206 [kcal/mol]      -2.50375605 [kJ/mol]
    Exchange sSAPT0                 0.05847651 [mEh]       0.03669457 [kcal/mol]       0.15353006 [kJ/mol]
    Induction sSAPT0               -0.07850600 [mEh]      -0.04926326 [kcal/mol]      -0.20611747 [kJ/mol]
    Dispersion sSAPT0              -0.83159075 [mEh]      -0.52183107 [kcal/mol]      -2.18334120 [kJ/mol]
  Total sSAPT0                     -1.80525055 [mEh]      -1.13281182 [kcal/mol]      -4.73968466 [kJ/mol]
  --------------------------------------------------------------------------------------------------------

*** Psi4 exiting successfully. Buy a developer a beer!
