                               Psi4 1.4a2.dev224

  ==> Input File <==

--------------------------------------------------------------------------
#Generated by lconvert.py for sapt job

memory 50 GB

molecule  {
0 1
 Cl       0.345460    1.418920    1.445490
 Cl      -0.362080   -1.434280    1.443480
  C      -0.013030   -0.007170    2.429450
  H      -0.885410    0.208440    3.032030
  H       0.853360   -0.222190    3.040790
--
0 1
 Cl      -0.355740   -1.396770   -6.918230
 Cl       0.347140    1.458600   -6.915850
  C       0.020510    0.024160   -5.934950
  H       0.901480   -0.194260   -5.346700
  H      -0.829230    0.233840   -5.299680
units angstrom
no_reorient
symmetry c1
}

set {
scf_type DF
basis aug-cc-pvtz
freeze_core True
guess SAD
}
energy('sapt2+')
--------------------------------------------------------------------------

  //              Dimer HF             //
    Molecular point group: c1
  Charge       = 0
  Multiplicity = 1
  Basis Set: AUG-CC-PVTZ
    Blend: AUG-CC-PVTZ
  Basis Set: (AUG-CC-PVTZ AUX)
    Blend: AUG-CC-PVTZ-JKFIT
  @DF-RHF Final Energy: -1916.15871533515565
    Total Energy =                      -1916.1587153351556481
  //            Monomer A HF           //
    Molecular point group: c1
  Multiplicity = 1
  Basis Set: AUG-CC-PVTZ
    Blend: AUG-CC-PVTZ
  Basis Set: (AUG-CC-PVTZ AUX)
    Blend: AUG-CC-PVTZ-JKFIT
  @DF-RHF Final Energy:  -958.07921181509801
    Total Energy =                       -958.0792118150980059
  //            Monomer B HF           //
    Molecular point group: c1

    Geometry (in Angstrom), charge = 0, multiplicity = 1:

       Center              X                  Y                   Z               Mass
    ------------   -----------------  -----------------  -----------------  -----------------
      Gh(CL)          0.349936532799     1.407872706564     4.002941606557    34.968852682000
      Gh(CL)         -0.357603467201    -1.445327293436     4.000931606557    34.968852682000
      Gh(C)          -0.008553467201    -0.018217293436     4.986901606557    12.000000000000
      Gh(H)          -0.880933467201     0.197392706564     5.589481606557     1.007825032230
      Gh(H)           0.857836532799    -0.233237293436     5.598241606557     1.007825032230
         CL          -0.351263467201    -1.407817293436    -4.360778393443    34.968852682000
         CL           0.351616532799     1.447552706564    -4.358398393443    34.968852682000
         C            0.024986532799     0.013112706564    -3.377498393443    12.000000000000
         H            0.905956532799    -0.205307293436    -2.789248393443     1.007825032230
         H           -0.824753467201     0.222792706564    -2.742228393443     1.007825032230

  Charge       = 0
  Multiplicity = 1
  Basis Set: AUG-CC-PVTZ
    Blend: AUG-CC-PVTZ
  Basis Set: (AUG-CC-PVTZ AUX)
    Blend: AUG-CC-PVTZ-JKFIT

    Orbital Energies [Eh]
    ---------------------

    Doubly Occupied:

       1A   -104.850322     2A   -104.850301     3A    -11.365432
       4A    -10.574746     5A    -10.574719     6A     -8.041602
       7A     -8.041576     8A     -8.039633     9A     -8.039607
      10A     -8.039539    11A     -8.039513    12A     -1.193898
      13A     -1.097274    14A     -0.897313    15A     -0.677342
      16A     -0.617954    17A     -0.585948    18A     -0.474348
      19A     -0.471683    20A     -0.448278    21A     -0.446505

  @DF-RHF Final Energy:  -958.07921812099721

   => Energetics <=

    Nuclear Repulsion Energy =            134.5677947781576904
    One-Electron Energy =               -1590.5589539536729262
    Two-Electron Energy =                 497.9119410545180813
    Total Energy =                       -958.0792181209972114

  Dipole Moment: [D]
     X:     0.0467      Y:    -0.0120      Z:     1.8378     Total:     1.8385

    SAPT Results
  --------------------------------------------------------------------------------------------------------
    Electrostatics                 -0.22562189 [mEh]      -0.14157987 [kcal/mol]      -0.59237019 [kJ/mol]
      Elst10,r                     -0.27934637 [mEh]      -0.17529249 [kcal/mol]      -0.73342379 [kJ/mol]
      Elst12,r                      0.05372448 [mEh]       0.03371262 [kcal/mol]       0.14105360 [kJ/mol]

    Exchange                        0.00000722 [mEh]       0.00000453 [kcal/mol]       0.00001896 [kJ/mol]
      Exch10                        0.00000577 [mEh]       0.00000362 [kcal/mol]       0.00001515 [kJ/mol]
      Exch10(S^2)                   0.00000577 [mEh]       0.00000362 [kcal/mol]       0.00001515 [kJ/mol]
      Exch11(S^2)                  -0.00000013 [mEh]      -0.00000008 [kcal/mol]      -0.00000035 [kJ/mol]
      Exch12(S^2)                   0.00000158 [mEh]       0.00000099 [kcal/mol]       0.00000416 [kJ/mol]

    Induction                      -0.00503900 [mEh]      -0.00316202 [kcal/mol]      -0.01322990 [kJ/mol]
      Ind20,r                      -0.00597237 [mEh]      -0.00374772 [kcal/mol]      -0.01568045 [kJ/mol]
      Ind22                         0.00101998 [mEh]       0.00064005 [kcal/mol]       0.00267796 [kJ/mol]
      Exch-Ind20,r                  0.00000306 [mEh]       0.00000192 [kcal/mol]       0.00000804 [kJ/mol]
      Exch-Ind22                   -0.00000052 [mEh]      -0.00000033 [kcal/mol]      -0.00000137 [kJ/mol]
      delta HF,r (2)               -0.00008916 [mEh]      -0.00005595 [kcal/mol]      -0.00023408 [kJ/mol]

    Dispersion                     -0.05848529 [mEh]      -0.03670008 [kcal/mol]      -0.15355312 [kJ/mol]
      Disp20                       -0.06471682 [mEh]      -0.04061042 [kcal/mol]      -0.16991399 [kJ/mol]
      Disp21                        0.01811416 [mEh]       0.01136681 [kcal/mol]       0.04755871 [kJ/mol]
      Disp22 (SDQ)                  0.00055071 [mEh]       0.00034557 [kcal/mol]       0.00144588 [kJ/mol]
      Disp22 (T)                   -0.01236642 [mEh]      -0.00776005 [kcal/mol]      -0.03246804 [kJ/mol]
      Est. Disp22 (T)              -0.01243460 [mEh]      -0.00780283 [kcal/mol]      -0.03264705 [kJ/mol]
      Exch-Disp20                   0.00000127 [mEh]       0.00000080 [kcal/mol]       0.00000333 [kJ/mol]

  Total HF                         -0.28539906 [mEh]      -0.17909061 [kcal/mol]      -0.74931513 [kJ/mol]
  Total SAPT0                      -0.35011462 [mEh]      -0.21970024 [kcal/mol]      -0.91922580 [kJ/mol]
  Total SAPT2                      -0.29536923 [mEh]      -0.18534699 [kcal/mol]      -0.77549180 [kJ/mol]
  Total SAPT2+                     -0.28913897 [mEh]      -0.18143744 [kcal/mol]      -0.75913425 [kJ/mol]

  Special recipe for scaled SAPT0 (see Manual):
    Electrostatics sSAPT0          -0.27934637 [mEh]      -0.17529249 [kcal/mol]      -0.73342379 [kJ/mol]
    Exchange sSAPT0                 0.00000577 [mEh]       0.00000362 [kcal/mol]       0.00001515 [kJ/mol]
    Induction sSAPT0               -0.00605846 [mEh]      -0.00380174 [kcal/mol]      -0.01590649 [kJ/mol]
    Dispersion sSAPT0              -0.06471555 [mEh]      -0.04060962 [kcal/mol]      -0.16991067 [kJ/mol]
  Total sSAPT0                     -0.35011462 [mEh]      -0.21970024 [kcal/mol]      -0.91922580 [kJ/mol]
  --------------------------------------------------------------------------------------------------------

*** Psi4 exiting successfully. Buy a developer a beer!
