                               Psi4 1.4a2.dev224

  ==> Input File <==

--------------------------------------------------------------------------
#Generated by lconvert.py for sapt job

memory 50 GB

molecule  {
0 1
 Cl       0.345460    1.418920    1.445490
 Cl      -0.362080   -1.434280    1.443480
  C      -0.013030   -0.007170    2.429450
  H      -0.885410    0.208440    3.032030
  H       0.853360   -0.222190    3.040790
--
0 1
 Cl      -0.357260   -1.402840   -5.555950
 Cl       0.345620    1.452530   -5.553570
  C       0.018990    0.018080   -4.572670
  H       0.899950   -0.200340   -3.984420
  H      -0.830750    0.227770   -3.937400
units angstrom
no_reorient
symmetry c1
}

set {
scf_type DF
basis aug-cc-pvtz
freeze_core True
guess SAD
}
energy('sapt2+')
--------------------------------------------------------------------------

  //              Dimer HF             //
    Molecular point group: c1
  Charge       = 0
  Multiplicity = 1
  Basis Set: AUG-CC-PVTZ
    Blend: AUG-CC-PVTZ
  Basis Set: (AUG-CC-PVTZ AUX)
    Blend: AUG-CC-PVTZ-JKFIT
  @DF-RHF Final Energy: -1916.15893969772674
    Total Energy =                      -1916.1589396977267370
  //            Monomer A HF           //
    Molecular point group: c1
  Multiplicity = 1
  Basis Set: AUG-CC-PVTZ
    Blend: AUG-CC-PVTZ
  Basis Set: (AUG-CC-PVTZ AUX)
    Blend: AUG-CC-PVTZ-JKFIT
  @DF-RHF Final Energy:  -958.07921633782485
    Total Energy =                       -958.0792163378248461
  //            Monomer B HF           //
    Molecular point group: c1

    Geometry (in Angstrom), charge = 0, multiplicity = 1:

       Center              X                  Y                   Z               Mass
    ------------   -----------------  -----------------  -----------------  -----------------
      Gh(CL)          0.350696592822     1.410908481269     3.321801606557    34.968852682000
      Gh(CL)         -0.356843407178    -1.442291518731     3.319791606557    34.968852682000
      Gh(C)          -0.007793407178    -0.015181518731     4.305761606557    12.000000000000
      Gh(H)          -0.880173407178     0.200428481269     4.908341606557     1.007825032230
      Gh(H)           0.858596592822    -0.230201518731     4.917101606557     1.007825032230
         CL          -0.352023407178    -1.410851518731    -3.679638393443    34.968852682000
         CL           0.350856592822     1.444518481269    -3.677258393443    34.968852682000
         C            0.024226592822     0.010068481269    -2.696358393443    12.000000000000
         H            0.905186592822    -0.208351518731    -2.108108393443     1.007825032230
         H           -0.825513407178     0.219758481269    -2.061088393443     1.007825032230

  Charge       = 0
  Multiplicity = 1
  Basis Set: AUG-CC-PVTZ
    Blend: AUG-CC-PVTZ
  Basis Set: (AUG-CC-PVTZ AUX)
    Blend: AUG-CC-PVTZ-JKFIT

    Orbital Energies [Eh]
    ---------------------

    Doubly Occupied:

       1A   -104.850322     2A   -104.850302     3A    -11.365429
       4A    -10.574745     5A    -10.574719     6A     -8.041600
       7A     -8.041576     8A     -8.039631     9A     -8.039607
      10A     -8.039537    11A     -8.039513    12A     -1.193897
      13A     -1.097273    14A     -0.897313    15A     -0.677341
      16A     -0.617953    17A     -0.585948    18A     -0.474347
      19A     -0.471682    20A     -0.448277    21A     -0.446504

  @DF-RHF Final Energy:  -958.07921984059885

   => Energetics <=

    Nuclear Repulsion Energy =            134.5678209670033993
    One-Electron Energy =               -1590.5590445549858032
    Two-Electron Energy =                 497.9120037473835509
    Total Energy =                       -958.0792198405988529

  Dipole Moment: [D]
     X:     0.0467      Y:    -0.0121      Z:     1.8376     Total:     1.8382

    SAPT Results
  --------------------------------------------------------------------------------------------------------
    Electrostatics                 -0.39707360 [mEh]      -0.24916745 [kcal/mol]      -1.04251660 [kJ/mol]
      Elst10,r                     -0.48529535 [mEh]      -0.30452743 [kcal/mol]      -1.27414277 [kJ/mol]
      Elst12,r                      0.08822175 [mEh]       0.05535998 [kcal/mol]       0.23162617 [kJ/mol]

    Exchange                        0.00072018 [mEh]       0.00045192 [kcal/mol]       0.00189082 [kJ/mol]
      Exch10                        0.00059218 [mEh]       0.00037160 [kcal/mol]       0.00155476 [kJ/mol]
      Exch10(S^2)                   0.00059217 [mEh]       0.00037160 [kcal/mol]       0.00155475 [kJ/mol]
      Exch11(S^2)                  -0.00000621 [mEh]      -0.00000389 [kcal/mol]      -0.00001629 [kJ/mol]
      Exch12(S^2)                   0.00013421 [mEh]       0.00008422 [kcal/mol]       0.00035236 [kJ/mol]

    Induction                      -0.01591573 [mEh]      -0.00998727 [kcal/mol]      -0.04178674 [kJ/mol]
      Ind20,r                      -0.01831631 [mEh]      -0.01149366 [kcal/mol]      -0.04808946 [kJ/mol]
      Ind22                         0.00291411 [mEh]       0.00182863 [kcal/mol]       0.00765099 [kJ/mol]
      Exch-Ind20,r                  0.00008618 [mEh]       0.00005408 [kcal/mol]       0.00022626 [kJ/mol]
      Exch-Ind22                   -0.00001371 [mEh]      -0.00000860 [kcal/mol]      -0.00003600 [kJ/mol]
      delta HF,r (2)               -0.00058600 [mEh]      -0.00036772 [kcal/mol]      -0.00153853 [kJ/mol]

    Dispersion                     -0.18324502 [mEh]      -0.11498798 [kcal/mol]      -0.48110973 [kJ/mol]
      Disp20                       -0.19978638 [mEh]      -0.12536785 [kcal/mol]      -0.52453908 [kJ/mol]
      Disp21                        0.05177362 [mEh]       0.03248844 [kcal/mol]       0.13593161 [kJ/mol]
      Disp22 (SDQ)                  0.00248678 [mEh]       0.00156048 [kcal/mol]       0.00652903 [kJ/mol]
      Disp22 (T)                   -0.03736495 [mEh]      -0.02344686 [kcal/mol]      -0.09810168 [kJ/mol]
      Est. Disp22 (T)              -0.03783598 [mEh]      -0.02374244 [kcal/mol]      -0.09933835 [kJ/mol]
      Exch-Disp20                   0.00011695 [mEh]       0.00007339 [kcal/mol]       0.00030706 [kJ/mol]

  Total HF                         -0.50351930 [mEh]      -0.31596313 [kcal/mol]      -1.32198975 [kJ/mol]
  Total SAPT0                      -0.70318873 [mEh]      -0.44125759 [kcal/mol]      -1.84622176 [kJ/mol]
  Total SAPT2                      -0.61193859 [mEh]      -0.38399726 [kcal/mol]      -1.60664454 [kJ/mol]
  Total SAPT2+                     -0.59551418 [mEh]      -0.37369079 [kcal/mol]      -1.56352225 [kJ/mol]

  Special recipe for scaled SAPT0 (see Manual):
    Electrostatics sSAPT0          -0.48529535 [mEh]      -0.30452743 [kcal/mol]      -1.27414277 [kJ/mol]
    Exchange sSAPT0                 0.00059218 [mEh]       0.00037160 [kcal/mol]       0.00155476 [kJ/mol]
    Induction sSAPT0               -0.01881613 [mEh]      -0.01180730 [kcal/mol]      -0.04940173 [kJ/mol]
    Dispersion sSAPT0              -0.19966943 [mEh]      -0.12529446 [kcal/mol]      -0.52423202 [kJ/mol]
  Total sSAPT0                     -0.70318873 [mEh]      -0.44125759 [kcal/mol]      -1.84622176 [kJ/mol]
  --------------------------------------------------------------------------------------------------------

*** Psi4 exiting successfully. Buy a developer a beer!
