                               Psi4 1.4a2.dev224

  ==> Input File <==

--------------------------------------------------------------------------
#Generated by lconvert.py for sapt job

memory 50 GB

molecule  {
0 1
 Br       0.377720    1.549730    1.434410
 Br      -0.393010   -1.562580    1.428420
  C      -0.013170   -0.007090    2.485710
  H      -0.885770    0.207900    3.087330
  H       0.853110   -0.222740    3.096160
--
0 1
 Br      -0.393060   -1.538420   -4.343690
 Br       0.375320    1.576070   -4.340960
  C       0.016860    0.011570   -3.291470
  H       0.898030   -0.206330   -2.704570
  H      -0.834150    0.220980   -2.659020
units angstrom
no_reorient
symmetry c1
}

set {
scf_type DF
basis aug-cc-pvtz
freeze_core True
guess SAD
}
energy('sapt2+')
--------------------------------------------------------------------------

  //              Dimer HF             //
    Molecular point group: c1
  Charge       = 0
  Multiplicity = 1
  Basis Set: AUG-CC-PVTZ
    Blend: AUG-CC-PVTZ
  Basis Set: (AUG-CC-PVTZ AUX)
    Blend: AUG-CC-PVTZ-JKFIT
  @DF-RHF Final Energy: -10367.92928889874929
    Total Energy =                     -10367.9292888987492915
  //            Monomer A HF           //
    Molecular point group: c1
  Multiplicity = 1
  Basis Set: AUG-CC-PVTZ
    Blend: AUG-CC-PVTZ
  Basis Set: (AUG-CC-PVTZ AUX)
    Blend: AUG-CC-PVTZ-JKFIT
  @DF-RHF Final Energy: -5183.96418032818656
    Total Energy =                      -5183.9641803281865577
  //            Monomer B HF           //
    Molecular point group: c1

    Geometry (in Angstrom), charge = 0, multiplicity = 1:

       Center              X                  Y                   Z               Mass
    ------------   -----------------  -----------------  -----------------  -----------------
      Gh(BR)          0.385083672239     1.543879793194     2.796891304055    78.918337600000
      Gh(BR)         -0.385646327761    -1.568430206806     2.790901304055    78.918337600000
      Gh(C)          -0.005806327761    -0.012940206806     3.848191304055    12.000000000000
      Gh(H)          -0.878406327761     0.202049793194     4.449811304055     1.007825032230
      Gh(H)           0.860473672239    -0.228590206806     4.458641304055     1.007825032230
         BR          -0.385696327761    -1.544270206806    -2.981208695945    78.918337600000
         BR           0.382683672239     1.570219793194    -2.978478695945    78.918337600000
         C            0.024223672239     0.005719793194    -1.928988695945    12.000000000000
         H            0.905393672239    -0.212180206806    -1.342088695945     1.007825032230
         H           -0.826786327761     0.215129793194    -1.296538695945     1.007825032230

  Charge       = 0
  Multiplicity = 1
  Basis Set: AUG-CC-PVTZ
    Blend: AUG-CC-PVTZ
  Basis Set: (AUG-CC-PVTZ AUX)
    Blend: AUG-CC-PVTZ-JKFIT

    Orbital Energies [Eh]
    ---------------------

    Doubly Occupied:

       1A   -490.035229     2A   -490.035229     3A    -65.175175
       4A    -65.175175     5A    -58.530505     6A    -58.530504
       7A    -58.529021     8A    -58.529020     9A    -58.528984
      10A    -58.528984    11A    -11.354869    12A     -9.848169
      13A     -9.848165    14A     -7.459985    15A     -7.459983
      16A     -7.452832    17A     -7.452830    18A     -7.452663
      19A     -7.452662    20A     -3.203784    21A     -3.203758
      22A     -3.200063    23A     -3.200061    24A     -3.199890
      25A     -3.199888    26A     -3.190727    27A     -3.190725
      28A     -3.190723    29A     -3.190722    30A     -1.120583
      31A     -1.013978    32A     -0.876067    33A     -0.662974
      34A     -0.578467    35A     -0.539854    36A     -0.431828
      37A     -0.430014    38A     -0.414816    39A     -0.406034

  @DF-RHF Final Energy: -5183.96417622018180

   => Energetics <=

    Nuclear Repulsion Energy =            354.0728253083161121
    One-Electron Energy =               -7924.4241065353980957
    Two-Electron Energy =                2386.3871050069001285
    Total Energy =                      -5183.9641762201817983

  Dipole Moment: [D]
     X:     0.0410      Y:    -0.0115      Z:     1.6704     Total:     1.6710

    SAPT Results
  --------------------------------------------------------------------------------------------------------
    Electrostatics                 -1.05296026 [mEh]      -0.66074254 [kcal/mol]      -2.76454679 [kJ/mol]
      Elst10,r                     -1.20437763 [mEh]      -0.75575838 [kcal/mol]      -3.16209304 [kJ/mol]
      Elst12,r                      0.15141737 [mEh]       0.09501584 [kcal/mol]       0.39754626 [kJ/mol]

    Exchange                        0.10114735 [mEh]       0.06347092 [kcal/mol]       0.26556233 [kJ/mol]
      Exch10                        0.09010956 [mEh]       0.05654461 [kcal/mol]       0.23658263 [kJ/mol]
      Exch10(S^2)                   0.09010025 [mEh]       0.05653876 [kcal/mol]       0.23655817 [kJ/mol]
      Exch11(S^2)                   0.00153202 [mEh]       0.00096136 [kcal/mol]       0.00402231 [kJ/mol]
      Exch12(S^2)                   0.00950577 [mEh]       0.00596496 [kcal/mol]       0.02495739 [kJ/mol]

    Induction                       0.19051877 [mEh]       0.11955233 [kcal/mol]       0.50020696 [kJ/mol]
      Ind20,r                      -0.10663383 [mEh]      -0.06691374 [kcal/mol]      -0.27996709 [kJ/mol]
      Ind22                         0.01147849 [mEh]       0.00720286 [kcal/mol]       0.03013676 [kJ/mol]
      Exch-Ind20,r                  0.02673079 [mEh]       0.01677382 [kcal/mol]       0.07018167 [kJ/mol]
      Exch-Ind22                   -0.00287741 [mEh]      -0.00180560 [kcal/mol]      -0.00755463 [kJ/mol]
      delta HF,r (2)                0.26182074 [mEh]       0.16429499 [kcal/mol]       0.68741025 [kJ/mol]

    Dispersion                     -1.06487242 [mEh]      -0.66821753 [kcal/mol]      -2.79582216 [kJ/mol]
      Disp20                       -1.15909850 [mEh]      -0.72734529 [kcal/mol]      -3.04321269 [kJ/mol]
      Disp21                        0.29513183 [mEh]       0.18519802 [kcal/mol]       0.77486851 [kJ/mol]
      Disp22 (SDQ)                  0.00101473 [mEh]       0.00063675 [kcal/mol]       0.00266417 [kJ/mol]
      Disp22 (T)                   -0.21015995 [mEh]      -0.13187736 [kcal/mol]      -0.55177487 [kJ/mol]
      Est. Disp22 (T)              -0.21785588 [mEh]      -0.13670663 [kcal/mol]      -0.57198054 [kJ/mol]
      Exch-Disp20                   0.01593541 [mEh]       0.00999962 [kcal/mol]       0.04183840 [kJ/mol]

  Total HF                         -0.93235038 [mEh]      -0.58505870 [kcal/mol]      -2.44788559 [kJ/mol]
  Total SAPT0                      -2.07551347 [mEh]      -1.30240437 [kcal/mol]      -5.44925988 [kJ/mol]
  Total SAPT2                      -1.90445724 [mEh]      -1.19506496 [kcal/mol]      -5.00015179 [kJ/mol]
  Total SAPT2+                     -1.82616656 [mEh]      -1.14593682 [kcal/mol]      -4.79459966 [kJ/mol]

  Special recipe for scaled SAPT0 (see Manual):
    Electrostatics sSAPT0          -1.20437763 [mEh]      -0.75575838 [kcal/mol]      -3.16209304 [kJ/mol]
    Exchange sSAPT0                 0.09010956 [mEh]       0.05654461 [kcal/mol]       0.23658263 [kJ/mol]
    Induction sSAPT0                0.18192598 [mEh]       0.11416028 [kcal/mol]       0.47764660 [kJ/mol]
    Dispersion sSAPT0              -1.14315815 [mEh]      -0.71734257 [kcal/mol]      -3.00136131 [kJ/mol]
  Total sSAPT0                     -2.07550024 [mEh]      -1.30239606 [kcal/mol]      -5.44922513 [kJ/mol]
  --------------------------------------------------------------------------------------------------------

*** Psi4 exiting successfully. Buy a developer a beer!
