                               Psi4 1.4a2.dev224

  ==> Input File <==

--------------------------------------------------------------------------
#Generated by lconvert.py for sapt job

memory 50 GB

molecule  {
0 1
 Br       0.377720    1.549730    1.434410
 Br      -0.393010   -1.562580    1.428420
  C      -0.013170   -0.007090    2.485710
  H      -0.885770    0.207900    3.087330
  H       0.853110   -0.222740    3.096160
--
0 1
 Br      -0.392300   -1.525900   -7.272040
 Br       0.376090    1.588590   -7.269310
  C       0.017620    0.024090   -6.219820
  H       0.898790   -0.193810   -5.632920
  H      -0.833390    0.233490   -5.587370
units angstrom
no_reorient
symmetry c1
}

set {
scf_type DF
basis aug-cc-pvtz
freeze_core True
guess SAD
}
energy('sapt2+')
--------------------------------------------------------------------------

  //              Dimer HF             //
    Molecular point group: c1
  Charge       = 0
  Multiplicity = 1
  Basis Set: AUG-CC-PVTZ
    Blend: AUG-CC-PVTZ
  Basis Set: (AUG-CC-PVTZ AUX)
    Blend: AUG-CC-PVTZ-JKFIT
  @DF-RHF Final Energy: -10367.92856171457424
    Total Energy =                     -10367.9285617145760625
  //            Monomer A HF           //
    Molecular point group: c1
  Multiplicity = 1
  Basis Set: AUG-CC-PVTZ
    Blend: AUG-CC-PVTZ
  Basis Set: (AUG-CC-PVTZ AUX)
    Blend: AUG-CC-PVTZ-JKFIT
  @DF-RHF Final Energy: -5183.96415871496538
    Total Energy =                      -5183.9641587149653787
  //            Monomer B HF           //
    Molecular point group: c1

    Geometry (in Angstrom), charge = 0, multiplicity = 1:

       Center              X                  Y                   Z               Mass
    ------------   -----------------  -----------------  -----------------  -----------------
      Gh(BR)          0.384701376130     1.537619822517     4.261066304055    78.918337600000
      Gh(BR)         -0.386028623870    -1.574690177483     4.255076304055    78.918337600000
      Gh(C)          -0.006188623870    -0.019200177483     5.312366304055    12.000000000000
      Gh(H)          -0.878788623870     0.195789822517     5.913986304055     1.007825032230
      Gh(H)           0.860091376130    -0.234850177483     5.922816304055     1.007825032230
         BR          -0.385318623870    -1.538010177483    -4.445383695945    78.918337600000
         BR           0.383071376130     1.576479822517    -4.442653695945    78.918337600000
         C            0.024601376130     0.011979822517    -3.393163695945    12.000000000000
         H            0.905771376130    -0.205920177483    -2.806263695945     1.007825032230
         H           -0.826408623870     0.221379822517    -2.760713695945     1.007825032230

  Charge       = 0
  Multiplicity = 1
  Basis Set: AUG-CC-PVTZ
    Blend: AUG-CC-PVTZ
  Basis Set: (AUG-CC-PVTZ AUX)
    Blend: AUG-CC-PVTZ-JKFIT

    Orbital Energies [Eh]
    ---------------------

    Doubly Occupied:

       1A   -490.035202     2A   -490.035201     3A    -65.175155
       4A    -65.175154     5A    -58.530483     6A    -58.530482
       7A    -58.528999     8A    -58.528999     9A    -58.528963
      10A    -58.528962    11A    -11.354878    12A     -9.848167
      13A     -9.848163    14A     -7.459983    15A     -7.459981
      16A     -7.452831    17A     -7.452828    18A     -7.452661
      19A     -7.452660    20A     -3.203783    21A     -3.203757
      22A     -3.200061    23A     -3.200059    24A     -3.199887
      25A     -3.199885    26A     -3.190724    27A     -3.190723
      28A     -3.190721    29A     -3.190720    30A     -1.120589
      31A     -1.013984    32A     -0.876073    33A     -0.662980
      34A     -0.578472    35A     -0.539859    36A     -0.431831
      37A     -0.430019    38A     -0.414821    39A     -0.406038

  @DF-RHF Final Energy: -5183.96416528218924

   => Energetics <=

    Nuclear Repulsion Energy =            354.0726201490458607
    One-Electron Energy =               -7924.4240825700726418
    Two-Electron Energy =                2386.3872971388373116
    Total Energy =                      -5183.9641652821892421

  Dipole Moment: [D]
     X:     0.0410      Y:    -0.0115      Z:     1.6707     Total:     1.6713

    SAPT Results
  --------------------------------------------------------------------------------------------------------
    Electrostatics                 -0.21571268 [mEh]      -0.13536175 [kcal/mol]      -0.56635357 [kJ/mol]
      Elst10,r                     -0.26747326 [mEh]      -0.16784201 [kcal/mol]      -0.70225096 [kJ/mol]
      Elst12,r                      0.05176058 [mEh]       0.03248026 [kcal/mol]       0.13589739 [kJ/mol]

    Exchange                        0.00000112 [mEh]       0.00000070 [kcal/mol]       0.00000295 [kJ/mol]
      Exch10                        0.00000619 [mEh]       0.00000388 [kcal/mol]       0.00001624 [kJ/mol]
      Exch10(S^2)                   0.00000619 [mEh]       0.00000388 [kcal/mol]       0.00001624 [kJ/mol]
      Exch11(S^2)                  -0.00000016 [mEh]      -0.00000010 [kcal/mol]      -0.00000041 [kJ/mol]
      Exch12(S^2)                  -0.00000491 [mEh]      -0.00000308 [kcal/mol]      -0.00001288 [kJ/mol]

    Induction                       0.03113605 [mEh]       0.01953816 [kcal/mol]       0.08174768 [kJ/mol]
      Ind20,r                      -0.00568865 [mEh]      -0.00356968 [kcal/mol]      -0.01493555 [kJ/mol]
      Ind22                         0.00138717 [mEh]       0.00087046 [kcal/mol]       0.00364202 [kJ/mol]
      Exch-Ind20,r                  0.00000322 [mEh]       0.00000202 [kcal/mol]       0.00000844 [kJ/mol]
      Exch-Ind22                   -0.00000078 [mEh]      -0.00000049 [kcal/mol]      -0.00000206 [kJ/mol]
      delta HF,r (2)                0.03543509 [mEh]       0.02223586 [kcal/mol]       0.09303483 [kJ/mol]

    Dispersion                     -0.07265959 [mEh]      -0.04559458 [kcal/mol]      -0.19076773 [kJ/mol]
      Disp20                       -0.08202765 [mEh]      -0.05147313 [kcal/mol]      -0.21536357 [kJ/mol]
      Disp21                        0.02671752 [mEh]       0.01676550 [kcal/mol]       0.07014685 [kJ/mol]
      Disp22 (SDQ)                 -0.00118411 [mEh]      -0.00074304 [kcal/mol]      -0.00310888 [kJ/mol]
      Disp22 (T)                   -0.01608498 [mEh]      -0.01009348 [kcal/mol]      -0.04223112 [kJ/mol]
      Est. Disp22 (T)              -0.01616718 [mEh]      -0.01014506 [kcal/mol]      -0.04244694 [kJ/mol]
      Exch-Disp20                   0.00000183 [mEh]       0.00000115 [kcal/mol]       0.00000480 [kJ/mol]

  Total HF                         -0.23771742 [mEh]      -0.14916993 [kcal/mol]      -0.62412700 [kJ/mol]
  Total SAPT0                      -0.31974324 [mEh]      -0.20064191 [kcal/mol]      -0.83948576 [kJ/mol]
  Total SAPT2                      -0.26660134 [mEh]      -0.16729486 [kcal/mol]      -0.69996171 [kJ/mol]
  Total SAPT2+                     -0.25723511 [mEh]      -0.16141747 [kcal/mol]      -0.67537068 [kJ/mol]

  Special recipe for scaled SAPT0 (see Manual):
    Electrostatics sSAPT0          -0.26747326 [mEh]      -0.16784201 [kcal/mol]      -0.70225096 [kJ/mol]
    Exchange sSAPT0                 0.00000619 [mEh]       0.00000388 [kcal/mol]       0.00001624 [kJ/mol]
    Induction sSAPT0                0.02974966 [mEh]       0.01866819 [kcal/mol]       0.07810772 [kJ/mol]
    Dispersion sSAPT0              -0.08202582 [mEh]      -0.05147198 [kcal/mol]      -0.21535876 [kJ/mol]
  Total sSAPT0                     -0.31974324 [mEh]      -0.20064191 [kcal/mol]      -0.83948576 [kJ/mol]
  --------------------------------------------------------------------------------------------------------

*** Psi4 exiting successfully. Buy a developer a beer!
