                               Psi4 1.4a2.dev224

  ==> Input File <==

--------------------------------------------------------------------------
#Generated by lconvert.py for sapt job

memory 50 GB

molecule  {
0 1
 Br       0.377720    1.549730    1.434410
 Br      -0.393010   -1.562580    1.428420
  C      -0.013170   -0.007090    2.485710
  H      -0.885770    0.207900    3.087330
  H       0.853110   -0.222740    3.096160
--
0 1
 Br      -0.392680   -1.532160   -5.807870
 Br       0.375710    1.582330   -5.805130
  C       0.017240    0.017830   -4.755650
  H       0.898410   -0.200070   -4.168750
  H      -0.833770    0.227230   -4.123200
units angstrom
no_reorient
symmetry c1
}

set {
scf_type DF
basis aug-cc-pvtz
freeze_core True
guess SAD
}
energy('sapt2+')
--------------------------------------------------------------------------

  //              Dimer HF             //
    Molecular point group: c1
  Charge       = 0
  Multiplicity = 1
  Basis Set: AUG-CC-PVTZ
    Blend: AUG-CC-PVTZ
  Basis Set: (AUG-CC-PVTZ AUX)
    Blend: AUG-CC-PVTZ-JKFIT
  @DF-RHF Final Energy: -10367.92877869164658
    Total Energy =                     -10367.9287786916465848
  //            Monomer A HF           //
    Molecular point group: c1
  Multiplicity = 1
  Basis Set: AUG-CC-PVTZ
    Blend: AUG-CC-PVTZ
  Basis Set: (AUG-CC-PVTZ AUX)
    Blend: AUG-CC-PVTZ-JKFIT
  @DF-RHF Final Energy: -5183.96416361851516
    Total Energy =                      -5183.9641636185151583
  //            Monomer B HF           //
    Molecular point group: c1

    Geometry (in Angstrom), charge = 0, multiplicity = 1:

       Center              X                  Y                   Z               Mass
    ------------   -----------------  -----------------  -----------------  -----------------
      Gh(BR)          0.384891376130     1.540749822517     3.528979007946    78.918337600000
      Gh(BR)         -0.385838623870    -1.571560177483     3.522989007946    78.918337600000
      Gh(C)          -0.005998623870    -0.016070177483     4.580279007946    12.000000000000
      Gh(H)          -0.878598623870     0.198919822517     5.181899007946     1.007825032230
      Gh(H)           0.860281376130    -0.231720177483     5.190729007946     1.007825032230
         BR          -0.385508623870    -1.541140177483    -3.713300992054    78.918337600000
         BR           0.382881376130     1.573349822517    -3.710560992054    78.918337600000
         C            0.024411376130     0.008849822517    -2.661080992054    12.000000000000
         H            0.905581376130    -0.209050177483    -2.074180992054     1.007825032230
         H           -0.826598623870     0.218249822517    -2.028630992054     1.007825032230

  Charge       = 0
  Multiplicity = 1
  Basis Set: AUG-CC-PVTZ
    Blend: AUG-CC-PVTZ
  Basis Set: (AUG-CC-PVTZ AUX)
    Blend: AUG-CC-PVTZ-JKFIT

    Orbital Energies [Eh]
    ---------------------

    Doubly Occupied:

       1A   -490.035207     2A   -490.035206     3A    -65.175159
       4A    -65.175158     5A    -58.530488     6A    -58.530487
       7A    -58.529004     8A    -58.529003     9A    -58.528968
      10A    -58.528967    11A    -11.354876    12A     -9.848168
      13A     -9.848164    14A     -7.459984    15A     -7.459982
      16A     -7.452831    17A     -7.452829    18A     -7.452662
      19A     -7.452661    20A     -3.203784    21A     -3.203757
      22A     -3.200062    23A     -3.200060    24A     -3.199888
      25A     -3.199886    26A     -3.190725    27A     -3.190723
      28A     -3.190721    29A     -3.190720    30A     -1.120588
      31A     -1.013983    32A     -0.876071    33A     -0.662979
      34A     -0.578471    35A     -0.539859    36A     -0.431830
      37A     -0.430018    38A     -0.414820    39A     -0.406038

  @DF-RHF Final Energy: -5183.96416675727323

   => Energetics <=

    Nuclear Repulsion Energy =            354.0728254952991847
    One-Electron Energy =               -7924.4243908740727420
    Two-Electron Energy =                2386.3873986215003242
    Total Energy =                      -5183.9641667572732331

  Dipole Moment: [D]
     X:     0.0410      Y:    -0.0115      Z:     1.6706     Total:     1.6711

    SAPT Results
  --------------------------------------------------------------------------------------------------------
    Electrostatics                 -0.29665869 [mEh]      -0.18615614 [kcal/mol]      -0.77887729 [kJ/mol]
      Elst10,r                     -0.38523737 [mEh]      -0.24174010 [kcal/mol]      -1.01144058 [kJ/mol]
      Elst12,r                      0.08857868 [mEh]       0.05558396 [kcal/mol]       0.23256329 [kJ/mol]

    Exchange                        0.00092810 [mEh]       0.00058239 [kcal/mol]       0.00243673 [kJ/mol]
      Exch10                        0.00081055 [mEh]       0.00050863 [kcal/mol]       0.00212810 [kJ/mol]
      Exch10(S^2)                   0.00081055 [mEh]       0.00050863 [kcal/mol]       0.00212810 [kJ/mol]
      Exch11(S^2)                  -0.00000575 [mEh]      -0.00000361 [kcal/mol]      -0.00001509 [kJ/mol]
      Exch12(S^2)                   0.00012330 [mEh]       0.00007737 [kcal/mol]       0.00032373 [kJ/mol]

    Induction                      -0.05972235 [mEh]      -0.03747634 [kcal/mol]      -0.15680101 [kJ/mol]
      Ind20,r                      -0.01891054 [mEh]      -0.01186654 [kcal/mol]      -0.04964961 [kJ/mol]
      Ind22                         0.00420637 [mEh]       0.00263954 [kcal/mol]       0.01104383 [kJ/mol]
      Exch-Ind20,r                  0.00017842 [mEh]       0.00011196 [kcal/mol]       0.00046844 [kJ/mol]
      Exch-Ind22                   -0.00003969 [mEh]      -0.00002490 [kcal/mol]      -0.00010420 [kJ/mol]
      delta HF,r (2)               -0.04515692 [mEh]      -0.02833639 [kcal/mol]      -0.11855947 [kJ/mol]

    Dispersion                     -0.23521172 [mEh]      -0.14759758 [kcal/mol]      -0.61754828 [kJ/mol]
      Disp20                       -0.26141062 [mEh]      -0.16403764 [kcal/mol]      -0.68633348 [kJ/mol]
      Disp21                        0.07891143 [mEh]       0.04951767 [kcal/mol]       0.20718194 [kJ/mol]
      Disp22 (SDQ)                 -0.00216134 [mEh]      -0.00135626 [kcal/mol]      -0.00567460 [kJ/mol]
      Disp22 (T)                   -0.05007905 [mEh]      -0.03142508 [kcal/mol]      -0.13148252 [kJ/mol]
      Est. Disp22 (T)              -0.05073707 [mEh]      -0.03183799 [kcal/mol]      -0.13321017 [kJ/mol]
      Exch-Disp20                   0.00018588 [mEh]       0.00011664 [kcal/mol]       0.00048803 [kJ/mol]

  Total HF                         -0.44831586 [mEh]      -0.28132245 [kcal/mol]      -1.17705312 [kJ/mol]
  Total SAPT0                      -0.70954060 [mEh]      -0.44524345 [kcal/mol]      -1.86289858 [kJ/mol]
  Total SAPT2                      -0.61667768 [mEh]      -0.38697109 [kcal/mol]      -1.61908703 [kJ/mol]
  Total SAPT2+                     -0.59066466 [mEh]      -0.37064767 [kcal/mol]      -1.55078985 [kJ/mol]

  Special recipe for scaled SAPT0 (see Manual):
    Electrostatics sSAPT0          -0.38523737 [mEh]      -0.24174010 [kcal/mol]      -1.01144058 [kJ/mol]
    Exchange sSAPT0                 0.00081055 [mEh]       0.00050863 [kcal/mol]       0.00212810 [kJ/mol]
    Induction sSAPT0               -0.06388904 [mEh]      -0.04009098 [kcal/mol]      -0.16774064 [kJ/mol]
    Dispersion sSAPT0              -0.26122474 [mEh]      -0.16392100 [kcal/mol]      -0.68584546 [kJ/mol]
  Total sSAPT0                     -0.70954060 [mEh]      -0.44524345 [kcal/mol]      -1.86289858 [kJ/mol]
  --------------------------------------------------------------------------------------------------------

*** Psi4 exiting successfully. Buy a developer a beer!
