                               Psi4 1.4a2.dev224

  ==> Input File <==

--------------------------------------------------------------------------
#Generated by lconvert.py for sapt job

memory 50 GB

molecule  {
1 1
  N      -0.635100   -0.241600    0.273160
  H      -0.701590   -1.189160    0.641240
  H      -1.171270   -0.218100   -0.592710
  H       0.365440   -0.049950    0.043150
  C      -1.152750    0.758200    1.257000
  H      -1.060650    1.744720    0.819000
  H      -2.190130    0.536310    1.477240
  H      -0.551780    0.692610    2.155940
--
0 1
  O       3.450510    0.802950   -0.460030
  H       3.795860    1.350050   -1.171770
  H       4.232070    0.448320   -0.025790
units angstrom
no_reorient
symmetry c1
}

set {
scf_type DF
basis aug-cc-pvtz
freeze_core True
guess SAD
}
energy('sapt2+')
--------------------------------------------------------------------------

  //              Dimer HF             //
    Molecular point group: c1
  Charge       = 1
  Multiplicity = 1
  Basis Set: AUG-CC-PVTZ
    Blend: AUG-CC-PVTZ
  Basis Set: (AUG-CC-PVTZ AUX)
    Blend: AUG-CC-PVTZ-JKFIT
  @DF-RHF Final Energy:  -171.69069701286389
    Total Energy =                       -171.6906970128638932
  //            Monomer A HF           //
    Molecular point group: c1
  Multiplicity = 1
  Basis Set: AUG-CC-PVTZ
    Blend: AUG-CC-PVTZ
  Basis Set: (AUG-CC-PVTZ AUX)
    Blend: AUG-CC-PVTZ-JKFIT
  @DF-RHF Final Energy:   -95.61775534644381
    Total Energy =                        -95.6177553464438148
  //            Monomer B HF           //
    Molecular point group: c1

    Geometry (in Angstrom), charge = 0, multiplicity = 1:

       Center              X                  Y                   Z               Mass
    ------------   -----------------  -----------------  -----------------  -----------------
      Gh(N)          -1.338317428648    -0.679052153886    -0.024947240871    14.003074004430
      Gh(H)          -1.404807428648    -1.626612153886     0.343132759129     1.007825032230
      Gh(H)          -1.874487428648    -0.655552153886    -0.890817240871     1.007825032230
      Gh(H)          -0.337777428648    -0.487402153886    -0.254957240871     1.007825032230
      Gh(C)          -1.855967428648     0.320747846114     0.958892759129    12.000000000000
      Gh(H)          -1.763867428648     1.307267846114     0.520892759129     1.007825032230
      Gh(H)          -2.893347428648     0.098857846114     1.179132759129     1.007825032230
      Gh(H)          -1.254997428648     0.255157846114     1.857832759129     1.007825032230
         O            2.747292571352     0.365497846114    -0.758137240871    15.994914619570
         H            3.092642571352     0.912597846114    -1.469877240871     1.007825032230
         H            3.528852571352     0.010867846114    -0.323897240871     1.007825032230

  Charge       = 0
  Multiplicity = 1
  Basis Set: AUG-CC-PVTZ
    Blend: AUG-CC-PVTZ
  Basis Set: (AUG-CC-PVTZ AUX)
    Blend: AUG-CC-PVTZ-JKFIT

    Orbital Energies [Eh]
    ---------------------

    Doubly Occupied:

       1A    -20.567978     2A     -1.351167     3A     -0.715481
       4A     -0.583898     5A     -0.509950

  @DF-RHF Final Energy:   -76.06027852166112

   => Energetics <=

    Nuclear Repulsion Energy =              9.1503026242079049
    One-Electron Energy =                -122.9642121554781795
    Two-Electron Energy =                  37.7536310096091512
    Total Energy =                        -76.0602785216611181

  Dipole Moment: [D]
     X:     1.9019      Y:     0.3248      Z:    -0.4684     Total:     1.9855

    SAPT Results
  --------------------------------------------------------------------------------------------------------
    Electrostatics                -10.84208165 [mEh]      -6.80350895 [kcal/mol]     -28.46588146 [kJ/mol]
      Elst10,r                    -11.60981784 [mEh]      -7.28527069 [kcal/mol]     -30.48157255 [kJ/mol]
      Elst12,r                      0.76773619 [mEh]       0.48176173 [kcal/mol]       2.01569109 [kJ/mol]

    Exchange                        0.08747853 [mEh]       0.05489360 [kcal/mol]       0.22967484 [kJ/mol]
      Exch10                        0.06984000 [mEh]       0.04382526 [kcal/mol]       0.18336489 [kJ/mol]
      Exch10(S^2)                   0.06983499 [mEh]       0.04382212 [kcal/mol]       0.18335175 [kJ/mol]
      Exch11(S^2)                  -0.00025911 [mEh]      -0.00016259 [kcal/mol]      -0.00068028 [kJ/mol]
      Exch12(S^2)                   0.01789763 [mEh]       0.01123093 [kcal/mol]       0.04699023 [kJ/mol]

    Induction                      -1.21978105 [mEh]      -0.76542417 [kcal/mol]      -3.20253471 [kJ/mol]
      Ind20,r                      -1.07289626 [mEh]      -0.67325257 [kcal/mol]      -2.81688874 [kJ/mol]
      Ind22                        -0.09822484 [mEh]      -0.06163702 [kcal/mol]      -0.25788928 [kJ/mol]
      Exch-Ind20,r                  0.01759348 [mEh]       0.01104008 [kcal/mol]       0.04619167 [kJ/mol]
      Exch-Ind22                    0.00161070 [mEh]       0.00101073 [kcal/mol]       0.00422890 [kJ/mol]
      delta HF,r (2)               -0.06786414 [mEh]      -0.04258539 [kcal/mol]      -0.17817727 [kJ/mol]

    Dispersion                     -0.35348468 [mEh]      -0.22181499 [kcal/mol]      -0.92807391 [kJ/mol]
      Disp20                       -0.32518079 [mEh]      -0.20405402 [kcal/mol]      -0.85376204 [kJ/mol]
      Disp21                        0.01242847 [mEh]       0.00779899 [kcal/mol]       0.03263096 [kJ/mol]
      Disp22 (SDQ)                  0.00733331 [mEh]       0.00460172 [kcal/mol]       0.01925361 [kJ/mol]
      Disp22 (T)                   -0.04905522 [mEh]      -0.03078261 [kcal/mol]      -0.12879445 [kJ/mol]
      Est. Disp22 (T)              -0.05295799 [mEh]      -0.03323164 [kcal/mol]      -0.13904118 [kJ/mol]
      Exch-Disp20                   0.00489230 [mEh]       0.00306997 [kcal/mol]       0.01284474 [kJ/mol]

  Total HF                        -12.66314476 [mEh]      -7.94624330 [kcal/mol]     -33.24708198 [kJ/mol]
  Total SAPT0                     -12.98343324 [mEh]      -8.14722736 [kcal/mol]     -34.08799928 [kJ/mol]
  Total SAPT2                     -12.29467266 [mEh]      -7.71502357 [kcal/mol]     -32.27965863 [kJ/mol]
  Total SAPT2+                    -12.32786886 [mEh]      -7.73585450 [kcal/mol]     -32.36681524 [kJ/mol]

  Special recipe for scaled SAPT0 (see Manual):
    Electrostatics sSAPT0         -11.60981784 [mEh]      -7.28527069 [kcal/mol]     -30.48157255 [kJ/mol]
    Exchange sSAPT0                 0.06984000 [mEh]       0.04382526 [kcal/mol]       0.18336489 [kJ/mol]
    Induction sSAPT0               -1.12316313 [mEh]      -0.70479550 [kcal/mol]      -2.94886439 [kJ/mol]
    Dispersion sSAPT0              -0.32028743 [mEh]      -0.20098340 [kcal/mol]      -0.84091453 [kJ/mol]
  Total sSAPT0                    -12.98342840 [mEh]      -8.14722433 [kcal/mol]     -34.08798658 [kJ/mol]
  --------------------------------------------------------------------------------------------------------

*** Psi4 exiting successfully. Buy a developer a beer!
