                               Psi4 1.4a2.dev224

  ==> Input File <==

--------------------------------------------------------------------------
#Generated by lconvert.py for sapt job

memory 50 GB

molecule  {
1 1
  N      -0.635100   -0.241600    0.273160
  H      -0.701590   -1.189160    0.641240
  H      -1.171270   -0.218100   -0.592710
  H       0.365440   -0.049950    0.043150
  C      -1.152750    0.758200    1.257000
  H      -1.060650    1.744720    0.819000
  H      -2.190130    0.536310    1.477240
  H      -0.551780    0.692610    2.155940
--
0 1
  O       2.476280    0.533610   -0.301130
  H       2.821630    1.080710   -1.012870
  H       3.257830    0.178990    0.133110
units angstrom
no_reorient
symmetry c1
}

set {
scf_type DF
basis aug-cc-pvtz
freeze_core True
guess SAD
}
energy('sapt2+')
--------------------------------------------------------------------------

  //              Dimer HF             //
    Molecular point group: c1
  Charge       = 1
  Multiplicity = 1
  Basis Set: AUG-CC-PVTZ
    Blend: AUG-CC-PVTZ
  Basis Set: (AUG-CC-PVTZ AUX)
    Blend: AUG-CC-PVTZ-JKFIT
  @DF-RHF Final Energy:  -171.70081993157197
    Total Energy =                       -171.7008199315719708
  //            Monomer A HF           //
    Molecular point group: c1
  Multiplicity = 1
  Basis Set: AUG-CC-PVTZ
    Blend: AUG-CC-PVTZ
  Basis Set: (AUG-CC-PVTZ AUX)
    Blend: AUG-CC-PVTZ-JKFIT
  @DF-RHF Final Energy:   -95.61777414349734
    Total Energy =                        -95.6177741434973427
  //            Monomer B HF           //
    Molecular point group: c1

    Geometry (in Angstrom), charge = 0, multiplicity = 1:

       Center              X                  Y                   Z               Mass
    ------------   -----------------  -----------------  -----------------  -----------------
      Gh(N)          -0.987813311492    -0.582150468906    -0.082115540171    14.003074004430
      Gh(H)          -1.054303311492    -1.529710468906     0.285964459829     1.007825032230
      Gh(H)          -1.523983311492    -0.558650468906    -0.947985540171     1.007825032230
      Gh(H)           0.012726688508    -0.390500468906    -0.312125540171     1.007825032230
      Gh(C)          -1.505463311492     0.417649531094     0.901724459829    12.000000000000
      Gh(H)          -1.413363311492     1.404169531094     0.463724459829     1.007825032230
      Gh(H)          -2.542843311492     0.195759531094     1.121964459829     1.007825032230
      Gh(H)          -0.904493311492     0.352059531094     1.800664459829     1.007825032230
         O            2.123566688508     0.193059531094    -0.656405540171    15.994914619570
         H            2.468916688508     0.740159531094    -1.368145540171     1.007825032230
         H            2.905116688508    -0.161560468906    -0.222165540171     1.007825032230

  Charge       = 0
  Multiplicity = 1
  Basis Set: AUG-CC-PVTZ
    Blend: AUG-CC-PVTZ
  Basis Set: (AUG-CC-PVTZ AUX)
    Blend: AUG-CC-PVTZ-JKFIT

    Orbital Energies [Eh]
    ---------------------

    Doubly Occupied:

       1A    -20.567881     2A     -1.351106     3A     -0.715425
       4A     -0.583865     5A     -0.509903

  @DF-RHF Final Energy:   -76.06032536050337

   => Energetics <=

    Nuclear Repulsion Energy =              9.1503586850104934
    One-Electron Energy =                -122.9650061300083621
    Two-Electron Energy =                  37.7543220844945040
    Total Energy =                        -76.0603253605033700

  Dipole Moment: [D]
     X:     1.9001      Y:     0.3247      Z:    -0.4678     Total:     1.9836

    SAPT Results
  --------------------------------------------------------------------------------------------------------
    Electrostatics                -20.19966591 [mEh]     -12.67548172 [kcal/mol]     -53.03421553 [kJ/mol]
      Elst10,r                    -21.51794786 [mEh]     -13.50271614 [kcal/mol]     -56.49536432 [kJ/mol]
      Elst12,r                      1.31828195 [mEh]       0.82723441 [kcal/mol]       3.46114879 [kJ/mol]

    Exchange                        4.06609411 [mEh]       2.55151258 [kcal/mol]      10.67552862 [kJ/mol]
      Exch10                        3.59295211 [mEh]       2.25461149 [kcal/mol]       9.43329447 [kJ/mol]
      Exch10(S^2)                   3.58358152 [mEh]       2.24873136 [kcal/mol]       9.40869199 [kJ/mol]
      Exch11(S^2)                   0.02746747 [mEh]       0.01723610 [kcal/mol]       0.07211583 [kJ/mol]
      Exch12(S^2)                   0.44567453 [mEh]       0.27966499 [kcal/mol]       1.17011832 [kJ/mol]

    Induction                      -5.14893856 [mEh]      -3.23100773 [kcal/mol]     -13.51853634 [kJ/mol]
      Ind20,r                      -4.67891755 [mEh]      -2.93606509 [kcal/mol]     -12.28449633 [kJ/mol]
      Ind22                        -0.43279470 [mEh]      -0.27158277 [kcal/mol]      -1.13630233 [kJ/mol]
      Exch-Ind20,r                  0.85717736 [mEh]       0.53788691 [kcal/mol]       2.25051885 [kJ/mol]
      Exch-Ind22                    0.07928796 [mEh]       0.04975394 [kcal/mol]       0.20817051 [kJ/mol]
      delta HF,r (2)               -0.97369164 [mEh]      -0.61100073 [kcal/mol]      -2.55642704 [kJ/mol]

    Dispersion                     -2.21065868 [mEh]      -1.38720927 [kcal/mol]      -5.80408357 [kJ/mol]
      Disp20                       -2.17039594 [mEh]      -1.36194401 [kcal/mol]      -5.69837374 [kJ/mol]
      Disp21                        0.03873630 [mEh]       0.02430739 [kcal/mol]       0.10170213 [kJ/mol]
      Disp22 (SDQ)                  0.04790608 [mEh]       0.03006152 [kcal/mol]       0.12577740 [kJ/mol]
      Disp22 (T)                   -0.28857426 [mEh]      -0.18108308 [kcal/mol]      -0.75765162 [kJ/mol]
      Est. Disp22 (T)              -0.33002755 [mEh]      -0.20709541 [kcal/mol]      -0.86648720 [kJ/mol]
      Exch-Disp20                   0.20312242 [mEh]       0.12746124 [kcal/mol]       0.53329784 [kJ/mol]

  Total HF                        -22.72042757 [mEh]     -14.25728355 [kcal/mol]     -59.65247437 [kJ/mol]
  Total SAPT0                     -24.68770108 [mEh]     -15.49176632 [kcal/mol]     -64.81755027 [kJ/mol]
  Total SAPT2                     -23.24978387 [mEh]     -14.58945964 [kcal/mol]     -61.04229915 [kJ/mol]
  Total SAPT2+                    -23.49316904 [mEh]     -14.74218614 [kcal/mol]     -61.68130682 [kJ/mol]

  Special recipe for scaled SAPT0 (see Manual):
    Electrostatics sSAPT0         -21.51794786 [mEh]     -13.50271614 [kcal/mol]     -56.49536432 [kJ/mol]
    Exchange sSAPT0                 3.59295211 [mEh]       2.25461149 [kcal/mol]       9.43329447 [kJ/mol]
    Induction sSAPT0               -4.78869001 [mEh]      -3.00494835 [kcal/mol]     -12.57270389 [kJ/mol]
    Dispersion sSAPT0              -1.96567593 [mEh]      -1.23348027 [kcal/mol]      -5.16088144 [kJ/mol]
  Total sSAPT0                    -24.67936169 [mEh]     -15.48653327 [kcal/mol]     -64.79565519 [kJ/mol]
  --------------------------------------------------------------------------------------------------------

*** Psi4 exiting successfully. Buy a developer a beer!
