                               Psi4 1.4a2.dev224

  ==> Input File <==

--------------------------------------------------------------------------
#Generated by lconvert.py for sapt job

memory 50 GB

molecule  {
1 1
  N      -0.635100   -0.241600    0.273160
  H      -0.701590   -1.189160    0.641240
  H      -1.171270   -0.218100   -0.592710
  H       0.365440   -0.049950    0.043150
  C      -1.152750    0.758200    1.257000
  H      -1.060650    1.744720    0.819000
  H      -2.190130    0.536310    1.477240
  H      -0.551780    0.692610    2.155940
--
0 1
  O       2.963390    0.668280   -0.380580
  H       3.308740    1.215380   -1.092320
  H       3.744950    0.313650    0.053660
units angstrom
no_reorient
symmetry c1
}

set {
scf_type DF
basis aug-cc-pvtz
freeze_core True
guess SAD
}
energy('sapt2+')
--------------------------------------------------------------------------

  //              Dimer HF             //
    Molecular point group: c1
  Charge       = 1
  Multiplicity = 1
  Basis Set: AUG-CC-PVTZ
    Blend: AUG-CC-PVTZ
  Basis Set: (AUG-CC-PVTZ AUX)
    Blend: AUG-CC-PVTZ-JKFIT
  @DF-RHF Final Energy:  -171.69491477953767
    Total Energy =                       -171.6949147795376689
  //            Monomer A HF           //
    Molecular point group: c1
  Multiplicity = 1
  Basis Set: AUG-CC-PVTZ
    Blend: AUG-CC-PVTZ
  Basis Set: (AUG-CC-PVTZ AUX)
    Blend: AUG-CC-PVTZ-JKFIT
  @DF-RHF Final Energy:   -95.61776337668442
    Total Energy =                        -95.6177633766844224
  //            Monomer B HF           //
    Molecular point group: c1

    Geometry (in Angstrom), charge = 0, multiplicity = 1:

       Center              X                  Y                   Z               Mass
    ------------   -----------------  -----------------  -----------------  -----------------
      Gh(N)          -1.163063671854    -0.630601210735    -0.053531390521    14.003074004430
      Gh(H)          -1.229553671854    -1.578161210735     0.314548609479     1.007825032230
      Gh(H)          -1.699233671854    -0.607101210735    -0.919401390521     1.007825032230
      Gh(H)          -0.162523671854    -0.438951210735    -0.283541390521     1.007825032230
      Gh(C)          -1.680713671854     0.369198789265     0.930308609479    12.000000000000
      Gh(H)          -1.588613671854     1.355718789265     0.492308609479     1.007825032230
      Gh(H)          -2.718093671854     0.147308789265     1.150548609479     1.007825032230
      Gh(H)          -1.079743671854     0.303608789265     1.829248609479     1.007825032230
         O            2.435426328146     0.279278789265    -0.707271390521    15.994914619570
         H            2.780776328146     0.826378789265    -1.419011390521     1.007825032230
         H            3.216986328146    -0.075351210735    -0.273031390521     1.007825032230

  Charge       = 0
  Multiplicity = 1
  Basis Set: AUG-CC-PVTZ
    Blend: AUG-CC-PVTZ
  Basis Set: (AUG-CC-PVTZ AUX)
    Blend: AUG-CC-PVTZ-JKFIT

    Orbital Energies [Eh]
    ---------------------

    Doubly Occupied:

       1A    -20.567939     2A     -1.351138     3A     -0.715453
       4A     -0.583889     5A     -0.509923

  @DF-RHF Final Energy:   -76.06030157727375

   => Energetics <=

    Nuclear Repulsion Energy =              9.1503026242079013
    One-Electron Energy =                -122.9645211412362897
    Two-Electron Energy =                  37.7539169397546601
    Total Energy =                        -76.0603015772737336

  Dipole Moment: [D]
     X:     1.9011      Y:     0.3247      Z:    -0.4681     Total:     1.9846

    SAPT Results
  --------------------------------------------------------------------------------------------------------
    Electrostatics                -14.24507118 [mEh]      -8.93891712 [kcal/mol]     -37.40042923 [kJ/mol]
      Elst10,r                    -15.23723576 [mEh]      -9.56150979 [kcal/mol]     -40.00535697 [kJ/mol]
      Elst12,r                      0.99216458 [mEh]       0.62259267 [kcal/mol]       2.60492774 [kJ/mol]

    Exchange                        0.60377156 [mEh]       0.37887237 [kcal/mol]       1.58520200 [kJ/mol]
      Exch10                        0.50737951 [mEh]       0.31838545 [kcal/mol]       1.33212473 [kJ/mol]
      Exch10(S^2)                   0.50715501 [mEh]       0.31824457 [kcal/mol]       1.33153530 [kJ/mol]
      Exch11(S^2)                   0.00084842 [mEh]       0.00053239 [kcal/mol]       0.00222753 [kJ/mol]
      Exch12(S^2)                   0.09554362 [mEh]       0.05995453 [kcal/mol]       0.25084975 [kJ/mol]

    Induction                      -2.29353219 [mEh]      -1.43921318 [kcal/mol]      -6.02166794 [kJ/mol]
      Ind20,r                      -2.01296756 [mEh]      -1.26315621 [kcal/mol]      -5.28504559 [kJ/mol]
      Ind22                        -0.18465540 [mEh]      -0.11587301 [kcal/mol]      -0.48481268 [kJ/mol]
      Exch-Ind20,r                  0.12092212 [mEh]       0.07587978 [kcal/mol]       0.31748099 [kJ/mol]
      Exch-Ind22                    0.01109254 [mEh]       0.00696067 [kcal/mol]       0.02912346 [kJ/mol]
      delta HF,r (2)               -0.22792390 [mEh]      -0.14302441 [kcal/mol]      -0.59841411 [kJ/mol]

    Dispersion                     -0.83963860 [mEh]      -0.52688118 [kcal/mol]      -2.20447085 [kJ/mol]
      Disp20                       -0.78132511 [mEh]      -0.49028891 [kcal/mol]      -2.05136878 [kJ/mol]
      Disp21                        0.01725477 [mEh]       0.01082753 [kcal/mol]       0.04530240 [kJ/mol]
      Disp22 (SDQ)                  0.01663100 [mEh]       0.01043611 [kcal/mol]       0.04366469 [kJ/mol]
      Disp22 (T)                   -0.11345792 [mEh]      -0.07119592 [kcal/mol]      -0.29788374 [kJ/mol]
      Est. Disp22 (T)              -0.12474001 [mEh]      -0.07827554 [kcal/mol]      -0.32750485 [kJ/mol]
      Exch-Disp20                   0.03254074 [mEh]       0.02041962 [kcal/mol]       0.08543570 [kJ/mol]

  Total HF                        -16.84982558 [mEh]     -10.57342518 [kcal/mol]     -44.23921096 [kJ/mol]
  Total SAPT0                     -17.59860995 [mEh]     -11.04329447 [kcal/mol]     -46.20514405 [kJ/mol]
  Total SAPT2                     -16.68361619 [mEh]     -10.46912721 [kcal/mol]     -43.80282826 [kJ/mol]
  Total SAPT2+                    -16.77447042 [mEh]     -10.52613911 [kcal/mol]     -44.04136603 [kJ/mol]

  Special recipe for scaled SAPT0 (see Manual):
    Electrostatics sSAPT0         -15.23723576 [mEh]      -9.56150979 [kcal/mol]     -40.00535697 [kJ/mol]
    Exchange sSAPT0                 0.50737951 [mEh]       0.31838545 [kcal/mol]       1.33212473 [kJ/mol]
    Induction sSAPT0               -2.11980868 [mEh]      -1.33020003 [kcal/mol]      -5.56555691 [kJ/mol]
    Dispersion sSAPT0              -0.74874113 [mEh]      -0.46984216 [kcal/mol]      -1.96581958 [kJ/mol]
  Total sSAPT0                    -17.59840606 [mEh]     -11.04316652 [kcal/mol]     -46.20460874 [kJ/mol]
  --------------------------------------------------------------------------------------------------------

*** Psi4 exiting successfully. Buy a developer a beer!
