                               Psi4 1.4a2.dev224

  ==> Input File <==

--------------------------------------------------------------------------
#Generated by lconvert.py for sapt job

memory 50 GB

molecule  {
1 1
  C      -3.719510   -0.009370    0.031830
  C      -2.658060   -0.870710    0.104480
  N      -1.521490   -0.112430    0.004910
  C      -1.848690    1.171980   -0.125030
  N      -3.184320    1.244970   -0.109770
  H      -3.709720    2.103600   -0.191360
  H      -0.549000   -0.468430    0.025750
  H      -4.778050   -0.186570    0.068730
  H      -2.630340   -1.938370    0.216690
  H      -1.167960    1.997300   -0.223840
--
0 1
  O       2.514150   -1.501710    0.082160
  H       3.063380   -1.656870    0.855590
  H       3.037480   -1.816750   -0.659990
units angstrom
no_reorient
symmetry c1
}

set {
scf_type DF
basis aug-cc-pvtz
freeze_core True
guess SAD
}
energy('sapt2+')
--------------------------------------------------------------------------

  //              Dimer HF             //
    Molecular point group: c1
  Charge       = 1
  Multiplicity = 1
  Basis Set: AUG-CC-PVTZ
    Blend: AUG-CC-PVTZ
  Basis Set: (AUG-CC-PVTZ AUX)
    Blend: AUG-CC-PVTZ-JKFIT
  @DF-RHF Final Energy:  -301.34866502135708
    Total Energy =                       -301.3486650213570783
  //            Monomer A HF           //
    Molecular point group: c1
  Multiplicity = 1
  Basis Set: AUG-CC-PVTZ
    Blend: AUG-CC-PVTZ
  Basis Set: (AUG-CC-PVTZ AUX)
    Blend: AUG-CC-PVTZ-JKFIT
  @DF-RHF Final Energy:  -225.27735611015123
    Total Energy =                       -225.2773561101512314
  //            Monomer B HF           //
    Molecular point group: c1

    Geometry (in Angstrom), charge = 0, multiplicity = 1:

       Center              X                  Y                   Z               Mass
    ------------   -----------------  -----------------  -----------------  -----------------
      Gh(C)          -2.212612591003     0.066895494442     0.030986559915    12.000000000000
      Gh(C)          -1.151162591003    -0.794444505558     0.103636559915    12.000000000000
      Gh(N)          -0.014592591003    -0.036164505558     0.004066559915    14.003074004430
      Gh(C)          -0.341792591003     1.248245494442    -0.125873440085    12.000000000000
      Gh(N)          -1.677422591003     1.321235494442    -0.110613440085    14.003074004430
      Gh(H)          -2.202822591003     2.179865494442    -0.192203440085     1.007825032230
      Gh(H)           0.957897408997    -0.392164505558     0.024906559915     1.007825032230
      Gh(H)          -3.271152591003    -0.110304505558     0.067886559915     1.007825032230
      Gh(H)          -1.123442591003    -1.862104505558     0.215846559915     1.007825032230
      Gh(H)           0.338937408997     2.073565494442    -0.224683440085     1.007825032230
         O            4.021047408997    -1.425444505558     0.081316559915    15.994914619570
         H            4.570277408997    -1.580604505558     0.854746559915     1.007825032230
         H            4.544377408997    -1.740484505558    -0.660833440085     1.007825032230

  Charge       = 0
  Multiplicity = 1
  Basis Set: AUG-CC-PVTZ
    Blend: AUG-CC-PVTZ
  Basis Set: (AUG-CC-PVTZ AUX)
    Blend: AUG-CC-PVTZ-JKFIT

    Orbital Energies [Eh]
    ---------------------

    Doubly Occupied:

       1A    -20.567729     2A     -1.351279     3A     -0.716432
       4A     -0.583419     5A     -0.509912

  @DF-RHF Final Energy:   -76.06034624753920

   => Energetics <=

    Nuclear Repulsion Energy =              9.1557373594969249
    One-Electron Energy =                -122.9746223480747460
    Two-Electron Energy =                  37.7585387410386204
    Total Energy =                        -76.0603462475392007

  Dipole Moment: [D]
     X:     1.8128      Y:    -0.7945      Z:     0.0528     Total:     1.9799

    SAPT Results
  --------------------------------------------------------------------------------------------------------
    Electrostatics                 -9.46746832 [mEh]      -5.94092606 [kcal/mol]     -24.85683465 [kJ/mol]
      Elst10,r                    -10.14424939 [mEh]      -6.36561260 [kcal/mol]     -26.63372310 [kJ/mol]
      Elst12,r                      0.67678107 [mEh]       0.42468653 [kcal/mol]       1.77688845 [kJ/mol]

    Exchange                        0.08533331 [mEh]       0.05354746 [kcal/mol]       0.22404258 [kJ/mol]
      Exch10                        0.06685598 [mEh]       0.04195276 [kcal/mol]       0.17553035 [kJ/mol]
      Exch10(S^2)                   0.06685133 [mEh]       0.04194984 [kcal/mol]       0.17551813 [kJ/mol]
      Exch11(S^2)                  -0.00154475 [mEh]      -0.00096935 [kcal/mol]      -0.00405575 [kJ/mol]
      Exch12(S^2)                   0.02002208 [mEh]       0.01256405 [kcal/mol]       0.05256798 [kJ/mol]

    Induction                      -0.95708591 [mEh]      -0.60058048 [kcal/mol]      -2.51282871 [kJ/mol]
      Ind20,r                      -0.84291638 [mEh]      -0.52893801 [kcal/mol]      -2.21307665 [kJ/mol]
      Ind22                        -0.07314246 [mEh]      -0.04589758 [kcal/mol]      -0.19203549 [kJ/mol]
      Exch-Ind20,r                  0.01529050 [mEh]       0.00959493 [kcal/mol]       0.04014520 [kJ/mol]
      Exch-Ind22                    0.00132680 [mEh]       0.00083258 [kcal/mol]       0.00348352 [kJ/mol]
      delta HF,r (2)               -0.05764437 [mEh]      -0.03617239 [kcal/mol]      -0.15134529 [kJ/mol]

    Dispersion                     -0.39467179 [mEh]      -0.24766029 [kcal/mol]      -1.03621064 [kJ/mol]
      Disp20                       -0.36445968 [mEh]      -0.22870190 [kcal/mol]      -0.95688876 [kJ/mol]
      Disp21                        0.03295611 [mEh]       0.02068027 [kcal/mol]       0.08652627 [kJ/mol]
      Disp22 (SDQ)                  0.00288262 [mEh]       0.00180887 [kcal/mol]       0.00756832 [kJ/mol]
      Disp22 (T)                   -0.06649784 [mEh]      -0.04172803 [kcal/mol]      -0.17459006 [kJ/mol]
      Est. Disp22 (T)              -0.07128167 [mEh]      -0.04472993 [kcal/mol]      -0.18715001 [kJ/mol]
      Exch-Disp20                   0.00523083 [mEh]       0.00328239 [kcal/mol]       0.01373354 [kJ/mol]

  Total HF                        -10.96266367 [mEh]      -6.87917531 [kcal/mol]     -28.78246949 [kJ/mol]
  Total SAPT0                     -11.32189252 [mEh]      -7.10459482 [kcal/mol]     -29.72562471 [kJ/mol]
  Total SAPT2                     -10.69844977 [mEh]      -6.71337859 [kcal/mol]     -28.08877600 [kJ/mol]
  Total SAPT2+                    -10.73389271 [mEh]      -6.73561936 [kcal/mol]     -28.18183142 [kJ/mol]

  Special recipe for scaled SAPT0 (see Manual):
    Electrostatics sSAPT0         -10.14424939 [mEh]      -6.36561260 [kcal/mol]     -26.63372310 [kJ/mol]
    Exchange sSAPT0                 0.06685598 [mEh]       0.04195276 [kcal/mol]       0.17553035 [kJ/mol]
    Induction sSAPT0               -0.88526706 [mEh]      -0.55551347 [kcal/mol]      -2.32426836 [kJ/mol]
    Dispersion sSAPT0              -0.35922776 [mEh]      -0.22541882 [kcal/mol]      -0.94315235 [kJ/mol]
  Total sSAPT0                    -11.32188823 [mEh]      -7.10459213 [kcal/mol]     -29.72561346 [kJ/mol]
  --------------------------------------------------------------------------------------------------------

*** Psi4 exiting successfully. Buy a developer a beer!
