                               Psi4 1.4a2.dev224

  ==> Input File <==

--------------------------------------------------------------------------
#Generated by lconvert.py for sapt job

memory 50 GB

molecule  {
1 1
  C      -3.719510   -0.009370    0.031830
  C      -2.658060   -0.870710    0.104480
  N      -1.521490   -0.112430    0.004910
  C      -1.848690    1.171980   -0.125030
  N      -3.184320    1.244970   -0.109770
  H      -3.709720    2.103600   -0.191360
  H      -0.549000   -0.468430    0.025750
  H      -4.778050   -0.186570    0.068730
  H      -2.630340   -1.938370    0.216690
  H      -1.167960    1.997300   -0.223840
--
0 1
  O       1.546840   -1.175410    0.064350
  H       2.096070   -1.330570    0.837780
  H       2.070180   -1.490450   -0.677810
units angstrom
no_reorient
symmetry c1
}

set {
scf_type DF
basis aug-cc-pvtz
freeze_core True
guess SAD
}
energy('sapt2+')
--------------------------------------------------------------------------

  //              Dimer HF             //
    Molecular point group: c1
  Charge       = 1
  Multiplicity = 1
  Basis Set: AUG-CC-PVTZ
    Blend: AUG-CC-PVTZ
  Basis Set: (AUG-CC-PVTZ AUX)
    Blend: AUG-CC-PVTZ-JKFIT
  @DF-RHF Final Energy:  -301.35774020887453
    Total Energy =                       -301.3577402088745316
  //            Monomer A HF           //
    Molecular point group: c1
  Multiplicity = 1
  Basis Set: AUG-CC-PVTZ
    Blend: AUG-CC-PVTZ
  Basis Set: (AUG-CC-PVTZ AUX)
    Blend: AUG-CC-PVTZ-JKFIT
  @DF-RHF Final Energy:  -225.27741534118780
    Total Energy =                       -225.2774153411878046
  //            Monomer B HF           //
    Molecular point group: c1

    Geometry (in Angstrom), charge = 0, multiplicity = 1:

       Center              X                  Y                   Z               Mass
    ------------   -----------------  -----------------  -----------------  -----------------
      Gh(C)          -2.012490581087    -0.000611147287     0.034671301148    12.000000000000
      Gh(C)          -0.951040581087    -0.861951147287     0.107321301148    12.000000000000
      Gh(N)           0.185529418913    -0.103671147287     0.007751301148    14.003074004430
      Gh(C)          -0.141670581087     1.180738852713    -0.122188698852    12.000000000000
      Gh(N)          -1.477300581087     1.253728852713    -0.106928698852    14.003074004430
      Gh(H)          -2.002700581087     2.112358852713    -0.188518698852     1.007825032230
      Gh(H)           1.158019418913    -0.459671147287     0.028591301148     1.007825032230
      Gh(H)          -3.071030581087    -0.177811147287     0.071571301148     1.007825032230
      Gh(H)          -0.923320581087    -1.929611147287     0.219531301148     1.007825032230
      Gh(H)           0.539059418913     2.006058852713    -0.220998698852     1.007825032230
         O            3.253859418913    -1.166651147287     0.067191301148    15.994914619570
         H            3.803089418913    -1.321811147287     0.840621301148     1.007825032230
         H            3.777199418913    -1.481691147287    -0.674968698852     1.007825032230

  Charge       = 0
  Multiplicity = 1
  Basis Set: AUG-CC-PVTZ
    Blend: AUG-CC-PVTZ
  Basis Set: (AUG-CC-PVTZ AUX)
    Blend: AUG-CC-PVTZ-JKFIT

    Orbital Energies [Eh]
    ---------------------

    Doubly Occupied:

       1A    -20.567614     2A     -1.351199     3A     -0.716357
       4A     -0.583371     5A     -0.509863

  @DF-RHF Final Energy:   -76.06039378506847

   => Energetics <=

    Nuclear Repulsion Energy =              9.1556748085614057
    One-Electron Energy =                -122.9753255867495341
    Two-Electron Energy =                  37.7592569931196635
    Total Energy =                        -76.0603937850684702

  Dipole Moment: [D]
     X:     1.8104      Y:    -0.7933      Z:     0.0528     Total:     1.9773

    SAPT Results
  --------------------------------------------------------------------------------------------------------
    Electrostatics                -18.17846321 [mEh]     -11.40715788 [kcal/mol]     -47.72754858 [kJ/mol]
      Elst10,r                    -19.30846083 [mEh]     -12.11624209 [kcal/mol]     -50.69435692 [kJ/mol]
      Elst12,r                      1.12999762 [mEh]       0.70908421 [kcal/mol]       2.96680834 [kJ/mol]

    Exchange                        3.97425669 [mEh]       2.49388372 [kcal/mol]      10.43440949 [kJ/mol]
      Exch10                        3.46399260 [mEh]       2.17368818 [kcal/mol]       9.09471133 [kJ/mol]
      Exch10(S^2)                   3.45517926 [mEh]       2.16815772 [kcal/mol]       9.07157191 [kJ/mol]
      Exch11(S^2)                  -0.01219807 [mEh]      -0.00765441 [kcal/mol]      -0.03202603 [kJ/mol]
      Exch12(S^2)                   0.52246215 [mEh]       0.32784995 [kcal/mol]       1.37172420 [kJ/mol]

    Induction                      -4.39322336 [mEh]      -2.75678928 [kcal/mol]     -11.53440634 [kJ/mol]
      Ind20,r                      -3.95411954 [mEh]      -2.48124747 [kcal/mol]     -10.38153942 [kJ/mol]
      Ind22                        -0.38175776 [mEh]      -0.23955661 [kcal/mol]      -1.00230486 [kJ/mol]
      Exch-Ind20,r                  0.77836613 [mEh]       0.48843212 [kcal/mol]       2.04360000 [kJ/mol]
      Exch-Ind22                    0.07514879 [mEh]       0.04715658 [kcal/mol]       0.19730313 [kJ/mol]
      delta HF,r (2)               -0.91086099 [mEh]      -0.57157390 [kcal/mol]      -2.39146519 [kJ/mol]

    Dispersion                     -2.31012168 [mEh]      -1.44962324 [kcal/mol]      -6.06522364 [kJ/mol]
      Disp20                       -2.25979166 [mEh]      -1.41804068 [kcal/mol]      -5.93308219 [kJ/mol]
      Disp21                        0.10575218 [mEh]       0.06636049 [kcal/mol]       0.27765231 [kJ/mol]
      Disp22 (SDQ)                  0.03144408 [mEh]       0.01973146 [kcal/mol]       0.08255642 [kJ/mol]
      Disp22 (T)                   -0.34986275 [mEh]      -0.21954219 [kcal/mol]      -0.91856452 [kJ/mol]
      Est. Disp22 (T)              -0.39918115 [mEh]      -0.25048995 [kcal/mol]      -1.04804997 [kJ/mol]
      Exch-Disp20                   0.21165487 [mEh]       0.13281544 [kcal/mol]       0.55569979 [kJ/mol]

  Total HF                        -19.93108262 [mEh]     -12.50694317 [kcal/mol]     -52.32905020 [kJ/mol]
  Total SAPT0                     -21.97921941 [mEh]     -13.79216840 [kcal/mol]     -57.70643260 [kJ/mol]
  Total SAPT2                     -20.64556667 [mEh]     -12.95528868 [kcal/mol]     -54.20492783 [kJ/mol]
  Total SAPT2+                    -20.90755157 [mEh]     -13.11968668 [kcal/mol]     -54.89276907 [kJ/mol]

  Special recipe for scaled SAPT0 (see Manual):
    Electrostatics sSAPT0         -19.30846083 [mEh]     -12.11624209 [kcal/mol]     -50.69435692 [kJ/mol]
    Exchange sSAPT0                 3.46399260 [mEh]       2.17368818 [kcal/mol]       9.09471133 [kJ/mol]
    Induction sSAPT0               -4.08064291 [mEh]      -2.56064208 [kcal/mol]     -10.71372647 [kJ/mol]
    Dispersion sSAPT0              -2.04651301 [mEh]      -1.28420630 [kcal/mol]      -5.37311917 [kJ/mol]
  Total sSAPT0                    -21.97162414 [mEh]     -13.78740230 [kcal/mol]     -57.68649124 [kJ/mol]
  --------------------------------------------------------------------------------------------------------

*** Psi4 exiting successfully. Buy a developer a beer!
