                               Psi4 1.4a2.dev224

  ==> Input File <==

--------------------------------------------------------------------------
#Generated by lconvert.py for sapt job

memory 50 GB

molecule  {
1 1
  C      -3.719510   -0.009370    0.031830
  C      -2.658060   -0.870710    0.104480
  N      -1.521490   -0.112430    0.004910
  C      -1.848690    1.171980   -0.125030
  N      -3.184320    1.244970   -0.109770
  H      -3.709720    2.103600   -0.191360
  H      -0.549000   -0.468430    0.025750
  H      -4.778050   -0.186570    0.068730
  H      -2.630340   -1.938370    0.216690
  H      -1.167960    1.997300   -0.223840
--
0 1
  O       2.030500   -1.338560    0.073260
  H       2.579720   -1.493720    0.846690
  H       2.553830   -1.653600   -0.668900
units angstrom
no_reorient
symmetry c1
}

set {
scf_type DF
basis aug-cc-pvtz
freeze_core True
guess SAD
}
energy('sapt2+')
--------------------------------------------------------------------------

  //              Dimer HF             //
    Molecular point group: c1
  Charge       = 1
  Multiplicity = 1
  Basis Set: AUG-CC-PVTZ
    Blend: AUG-CC-PVTZ
  Basis Set: (AUG-CC-PVTZ AUX)
    Blend: AUG-CC-PVTZ-JKFIT
  @DF-RHF Final Energy:  -301.35241414336622
    Total Energy =                       -301.3524141433662180
  //            Monomer A HF           //
    Molecular point group: c1
  Multiplicity = 1
  Basis Set: AUG-CC-PVTZ
    Blend: AUG-CC-PVTZ
  Basis Set: (AUG-CC-PVTZ AUX)
    Blend: AUG-CC-PVTZ-JKFIT
  @DF-RHF Final Energy:  -225.27737696031926
    Total Energy =                       -225.2773769603192591
  //            Monomer B HF           //
    Molecular point group: c1

    Geometry (in Angstrom), charge = 0, multiplicity = 1:

       Center              X                  Y                   Z               Mass
    ------------   -----------------  -----------------  -----------------  -----------------
      Gh(C)          -2.112552446820     0.033142173578     0.032827953990    12.000000000000
      Gh(C)          -1.051102446820    -0.828197826422     0.105477953990    12.000000000000
      Gh(N)           0.085467553180    -0.069917826422     0.005907953990    14.003074004430
      Gh(C)          -0.241732446820     1.214492173578    -0.124032046010    12.000000000000
      Gh(N)          -1.577362446820     1.287482173578    -0.108772046010    14.003074004430
      Gh(H)          -2.102762446820     2.146112173578    -0.190362046010     1.007825032230
      Gh(H)           1.057957553180    -0.425917826422     0.026747953990     1.007825032230
      Gh(H)          -3.171092446820    -0.144057826422     0.069727953990     1.007825032230
      Gh(H)          -1.023382446820    -1.895857826422     0.217687953990     1.007825032230
      Gh(H)           0.438997553180     2.039812173578    -0.222842046010     1.007825032230
         O            3.637457553180    -1.296047826422     0.074257953990    15.994914619570
         H            4.186677553180    -1.451207826422     0.847687953990     1.007825032230
         H            4.160787553180    -1.611087826422    -0.667902046010     1.007825032230

  Charge       = 0
  Multiplicity = 1
  Basis Set: AUG-CC-PVTZ
    Blend: AUG-CC-PVTZ
  Basis Set: (AUG-CC-PVTZ AUX)
    Blend: AUG-CC-PVTZ-JKFIT

    Orbital Energies [Eh]
    ---------------------

    Doubly Occupied:

       1A    -20.567682     2A     -1.351244     3A     -0.716401
       4A     -0.583404     5A     -0.509883

  @DF-RHF Final Energy:   -76.06037012137971

   => Energetics <=

    Nuclear Repulsion Energy =              9.1557259365265935
    One-Electron Energy =                -122.9749609884187578
    Two-Electron Energy =                  37.7588649305124662
    Total Energy =                        -76.0603701213796910

  Dipole Moment: [D]
     X:     1.8117      Y:    -0.7939      Z:     0.0528     Total:     1.9787

    SAPT Results
  --------------------------------------------------------------------------------------------------------
    Electrostatics                -12.57175306 [mEh]      -7.88889415 [kcal/mol]     -33.00713311 [kJ/mol]
      Elst10,r                    -13.43702163 [mEh]      -8.43185837 [kcal/mol]     -35.27889542 [kJ/mol]
      Elst12,r                      0.86526857 [mEh]       0.54296422 [kcal/mol]       2.27176231 [kJ/mol]

    Exchange                        0.58953382 [mEh]       0.36993806 [kcal/mol]       1.54782082 [kJ/mol]
      Exch10                        0.48716986 [mEh]       0.30570370 [kcal/mol]       1.27906430 [kJ/mol]
      Exch10(S^2)                   0.48696032 [mEh]       0.30557221 [kcal/mol]       1.27851414 [kJ/mol]
      Exch11(S^2)                  -0.00664835 [mEh]      -0.00417191 [kcal/mol]      -0.01745525 [kJ/mol]
      Exch12(S^2)                   0.10901231 [mEh]       0.06840626 [kcal/mol]       0.28621178 [kJ/mol]

    Induction                      -1.85377079 [mEh]      -1.16325873 [kcal/mol]      -4.86707453 [kJ/mol]
      Ind20,r                      -1.62321973 [mEh]      -1.01858576 [kcal/mol]      -4.26176282 [kJ/mol]
      Ind22                        -0.14623980 [mEh]      -0.09176686 [kcal/mol]      -0.38395254 [kJ/mol]
      Exch-Ind20,r                  0.10743318 [mEh]       0.06741534 [kcal/mol]       0.28206577 [kJ/mol]
      Exch-Ind22                    0.00967892 [mEh]       0.00607361 [kcal/mol]       0.02541199 [kJ/mol]
      delta HF,r (2)               -0.20142335 [mEh]      -0.12639506 [kcal/mol]      -0.52883693 [kJ/mol]

    Dispersion                     -0.90468791 [mEh]      -0.56770024 [kcal/mol]      -2.37525778 [kJ/mol]
      Disp20                       -0.84197146 [mEh]      -0.52834507 [kcal/mol]      -2.21059577 [kJ/mol]
      Disp21                        0.05292877 [mEh]       0.03321330 [kcal/mol]       0.13896446 [kJ/mol]
      Disp22 (SDQ)                  0.00855235 [mEh]       0.00536668 [kcal/mol]       0.02245420 [kJ/mol]
      Disp22 (T)                   -0.14469236 [mEh]      -0.09079583 [kcal/mol]      -0.37988973 [kJ/mol]
      Est. Disp22 (T)              -0.15850861 [mEh]      -0.09946566 [kcal/mol]      -0.41616431 [kJ/mol]
      Exch-Disp20                   0.03431105 [mEh]       0.02153051 [kcal/mol]       0.09008364 [kJ/mol]

  Total HF                        -14.66706167 [mEh]      -9.20372015 [kcal/mol]     -38.50836510 [kJ/mol]
  Total SAPT0                     -15.47472208 [mEh]      -9.71053471 [kcal/mol]     -40.62887723 [kJ/mol]
  Total SAPT2                     -14.64365044 [mEh]      -9.18902938 [kcal/mol]     -38.44689894 [kJ/mol]
  Total SAPT2+                    -14.74067794 [mEh]      -9.24991506 [kcal/mol]     -38.70164460 [kJ/mol]

  Special recipe for scaled SAPT0 (see Manual):
    Electrostatics sSAPT0         -13.43702163 [mEh]      -8.43185837 [kcal/mol]     -35.27889542 [kJ/mol]
    Exchange sSAPT0                 0.48716986 [mEh]       0.30570370 [kcal/mol]       1.27906430 [kJ/mol]
    Induction sSAPT0               -1.71707115 [mEh]      -1.07747842 [kcal/mol]      -4.50816969 [kJ/mol]
    Dispersion sSAPT0              -0.80761610 [mEh]      -0.50678676 [kcal/mol]      -2.12039579 [kJ/mol]
  Total sSAPT0                    -15.47453902 [mEh]      -9.71041984 [kcal/mol]     -40.62839660 [kJ/mol]
  --------------------------------------------------------------------------------------------------------

*** Psi4 exiting successfully. Buy a developer a beer!
