                               Psi4 1.4a2.dev224

  ==> Input File <==

--------------------------------------------------------------------------
#Generated by lconvert.py for sapt job

memory 50 GB

molecule  {
1 1
  C      -2.482940    0.145570    0.115880
  N      -3.741260    0.545110    0.294520
  N      -2.223000   -1.065030   -0.362490
  N      -1.472120    0.952660    0.413850
  H      -0.525470    0.627370    0.269800
  H      -1.631810    1.874140    0.777490
  H      -3.949510    1.458240    0.655420
  H      -4.513270   -0.056720    0.072690
  H      -2.962360   -1.701050   -0.598470
  H      -1.259910   -1.346150   -0.489510
--
0 1
  O       3.211170   -1.662310   -0.692260
  H       3.759010   -1.564040   -1.477600
  H       3.783900   -2.116420   -0.065920
units angstrom
no_reorient
symmetry c1
}

set {
scf_type DF
basis aug-cc-pvtz
freeze_core True
guess SAD
}
energy('sapt2+')
--------------------------------------------------------------------------

  //              Dimer HF             //
    Molecular point group: c1
  Charge       = 1
  Multiplicity = 1
  Basis Set: AUG-CC-PVTZ
    Blend: AUG-CC-PVTZ
  Basis Set: (AUG-CC-PVTZ AUX)
    Blend: AUG-CC-PVTZ-JKFIT
  @DF-RHF Final Energy:  -280.68294140902742
    Total Energy =                       -280.6829414090274213
  //            Monomer A HF           //
    Molecular point group: c1
  Multiplicity = 1
  Basis Set: AUG-CC-PVTZ
    Blend: AUG-CC-PVTZ
  Basis Set: (AUG-CC-PVTZ AUX)
    Blend: AUG-CC-PVTZ-JKFIT
  @DF-RHF Final Energy:  -204.61547636446480
    Total Energy =                       -204.6154763644647971
  //            Monomer B HF           //
    Molecular point group: c1

    Geometry (in Angstrom), charge = 0, multiplicity = 1:

       Center              X                  Y                   Z               Mass
    ------------   -----------------  -----------------  -----------------  -----------------
      Gh(C)          -1.331084404847     0.422624094469     0.188913606822    12.000000000000
      Gh(N)          -2.589404404847     0.822164094469     0.367553606822    14.003074004430
      Gh(N)          -1.071144404847    -0.787975905531    -0.289456393178    14.003074004430
      Gh(N)          -0.320264404847     1.229714094469     0.486883606822    14.003074004430
      Gh(H)           0.626385595153     0.904424094469     0.342833606822     1.007825032230
      Gh(H)          -0.479954404847     2.151194094469     0.850523606822     1.007825032230
      Gh(H)          -2.797654404847     1.735294094469     0.728453606822     1.007825032230
      Gh(H)          -3.361414404847     0.220334094469     0.145723606822     1.007825032230
      Gh(H)          -1.810504404847    -1.423995905531    -0.525436393178     1.007825032230
      Gh(H)          -0.108054404847    -1.069095905531    -0.416476393178     1.007825032230
         O            4.363025595153    -1.385255905531    -0.619226393178    15.994914619570
         H            4.910865595153    -1.286985905531    -1.404566393178     1.007825032230
         H            4.935755595153    -1.839365905531     0.007113606822     1.007825032230

  Charge       = 0
  Multiplicity = 1
  Basis Set: AUG-CC-PVTZ
    Blend: AUG-CC-PVTZ
  Basis Set: (AUG-CC-PVTZ AUX)
    Blend: AUG-CC-PVTZ-JKFIT

    Orbital Energies [Eh]
    ---------------------

    Doubly Occupied:

       1A    -20.568418     2A     -1.351301     3A     -0.713769
       4A     -0.585107     5A     -0.510103

  @DF-RHF Final Energy:   -76.06016558252375

   => Energetics <=

    Nuclear Repulsion Energy =              9.1451091941202449
    One-Electron Energy =                -122.9531499854916490
    Two-Electron Energy =                  37.7478752088476668
    Total Energy =                        -76.0601655825237515

  Dipole Moment: [D]
     X:     1.8869      Y:    -0.5992      Z:    -0.2677     Total:     1.9978

    SAPT Results
  --------------------------------------------------------------------------------------------------------
    Electrostatics                 -6.48848125 [mEh]      -4.07158345 [kcal/mol]     -17.03550517 [kJ/mol]
      Elst10,r                     -6.94024175 [mEh]      -4.35506745 [kcal/mol]     -18.22160219 [kJ/mol]
      Elst12,r                      0.45176050 [mEh]       0.28348399 [kcal/mol]       1.18609703 [kJ/mol]

    Exchange                        0.00170794 [mEh]       0.00107175 [kcal/mol]       0.00448418 [kJ/mol]
      Exch10                        0.00118407 [mEh]       0.00074302 [kcal/mol]       0.00310878 [kJ/mol]
      Exch10(S^2)                   0.00118407 [mEh]       0.00074302 [kcal/mol]       0.00310878 [kJ/mol]
      Exch11(S^2)                  -0.00002503 [mEh]      -0.00001571 [kcal/mol]      -0.00006571 [kJ/mol]
      Exch12(S^2)                   0.00054889 [mEh]       0.00034443 [kcal/mol]       0.00144111 [kJ/mol]

    Induction                      -0.39267568 [mEh]      -0.24640771 [kcal/mol]      -1.03096987 [kJ/mol]
      Ind20,r                      -0.35178940 [mEh]      -0.22075118 [kcal/mol]      -0.92362293 [kJ/mol]
      Ind22                        -0.03229820 [mEh]      -0.02026743 [kcal/mol]      -0.08479892 [kJ/mol]
      Exch-Ind20,r                  0.00029283 [mEh]       0.00018375 [kcal/mol]       0.00076883 [kJ/mol]
      Exch-Ind22                    0.00002689 [mEh]       0.00001687 [kcal/mol]       0.00007059 [kJ/mol]
      delta HF,r (2)               -0.00890780 [mEh]      -0.00558973 [kcal/mol]      -0.02338743 [kJ/mol]

    Dispersion                     -0.11471042 [mEh]      -0.07198188 [kcal/mol]      -0.30117217 [kJ/mol]
      Disp20                       -0.10589054 [mEh]      -0.06644731 [kcal/mol]      -0.27801557 [kJ/mol]
      Disp21                        0.00944327 [mEh]       0.00592574 [kcal/mol]       0.02479329 [kJ/mol]
      Disp22 (SDQ)                  0.00139924 [mEh]       0.00087803 [kcal/mol]       0.00367369 [kJ/mol]
      Disp22 (T)                   -0.01907792 [mEh]      -0.01197158 [kcal/mol]      -0.05008907 [kJ/mol]
      Est. Disp22 (T)              -0.01977353 [mEh]      -0.01240808 [kcal/mol]      -0.05191540 [kJ/mol]
      Exch-Disp20                   0.00011115 [mEh]       0.00006975 [kcal/mol]       0.00029182 [kJ/mol]

  Total HF                         -7.29946204 [mEh]      -4.58048158 [kcal/mol]     -19.16473494 [kJ/mol]
  Total SAPT0                      -7.40524143 [mEh]      -4.64685915 [kcal/mol]     -19.44245869 [kJ/mol]
  Total SAPT2                      -6.98522839 [mEh]      -4.38329699 [kcal/mol]     -18.33971460 [kJ/mol]
  Total SAPT2+                     -6.99415942 [mEh]      -4.38890129 [kcal/mol]     -18.36316302 [kJ/mol]

  Special recipe for scaled SAPT0 (see Manual):
    Electrostatics sSAPT0          -6.94024175 [mEh]      -4.35506745 [kcal/mol]     -18.22160219 [kJ/mol]
    Exchange sSAPT0                 0.00118407 [mEh]       0.00074302 [kcal/mol]       0.00310878 [kJ/mol]
    Induction sSAPT0               -0.36040437 [mEh]      -0.22615715 [kcal/mol]      -0.94624153 [kJ/mol]
    Dispersion sSAPT0              -0.10577939 [mEh]      -0.06637757 [kcal/mol]      -0.27772375 [kJ/mol]
  Total sSAPT0                     -7.40524143 [mEh]      -4.64685915 [kcal/mol]     -19.44245869 [kJ/mol]
  --------------------------------------------------------------------------------------------------------

*** Psi4 exiting successfully. Buy a developer a beer!
