                               Psi4 1.4a2.dev224

  ==> Input File <==

--------------------------------------------------------------------------
#Generated by lconvert.py for sapt job

memory 50 GB

molecule  {
1 1
  C      -2.482940    0.145570    0.115880
  N      -3.741260    0.545110    0.294520
  N      -2.223000   -1.065030   -0.362490
  N      -1.472120    0.952660    0.413850
  H      -0.525470    0.627370    0.269800
  H      -1.631810    1.874140    0.777490
  H      -3.949510    1.458240    0.655420
  H      -4.513270   -0.056720    0.072690
  H      -2.962360   -1.701050   -0.598470
  H      -1.259910   -1.346150   -0.489510
--
0 1
  O       2.358110   -1.391480   -0.571200
  H       2.905950   -1.293200   -1.356530
  H       2.930840   -1.845580    0.055140
units angstrom
no_reorient
symmetry c1
}

set {
scf_type DF
basis aug-cc-pvtz
freeze_core True
guess SAD
}
energy('sapt2+')
--------------------------------------------------------------------------

  //              Dimer HF             //
    Molecular point group: c1
  Charge       = 1
  Multiplicity = 1
  Basis Set: AUG-CC-PVTZ
    Blend: AUG-CC-PVTZ
  Basis Set: (AUG-CC-PVTZ AUX)
    Blend: AUG-CC-PVTZ-JKFIT
  @DF-RHF Final Energy:  -280.68659170206365
    Total Energy =                       -280.6865917020636516
  //            Monomer A HF           //
    Molecular point group: c1
  Multiplicity = 1
  Basis Set: AUG-CC-PVTZ
    Blend: AUG-CC-PVTZ
  Basis Set: (AUG-CC-PVTZ AUX)
    Blend: AUG-CC-PVTZ-JKFIT
  @DF-RHF Final Energy:  -204.61548454065667
    Total Energy =                       -204.6154845406566665
  //            Monomer B HF           //
    Molecular point group: c1

    Geometry (in Angstrom), charge = 0, multiplicity = 1:

       Center              X                  Y                   Z               Mass
    ------------   -----------------  -----------------  -----------------  -----------------
      Gh(C)          -1.134277250849     0.360141383084     0.160984054163    12.000000000000
      Gh(N)          -2.392597250849     0.759681383084     0.339624054163    14.003074004430
      Gh(N)          -0.874337250849    -0.850458616916    -0.317385945837    14.003074004430
      Gh(N)          -0.123457250849     1.167231383084     0.458954054163    14.003074004430
      Gh(H)           0.823192749151     0.841941383084     0.314904054163     1.007825032230
      Gh(H)          -0.283147250849     2.088711383084     0.822594054163     1.007825032230
      Gh(H)          -2.600847250849     1.672811383084     0.700524054163     1.007825032230
      Gh(H)          -3.164607250849     0.157851383084     0.117794054163     1.007825032230
      Gh(H)          -1.613697250849    -1.486478616916    -0.553365945837     1.007825032230
      Gh(H)           0.088752749151    -1.131578616916    -0.444405945837     1.007825032230
         O            3.706772749151    -1.176908616916    -0.526095945837    15.994914619570
         H            4.254612749151    -1.078628616916    -1.311425945837     1.007825032230
         H            4.279502749151    -1.631008616916     0.100244054163     1.007825032230

  Charge       = 0
  Multiplicity = 1
  Basis Set: AUG-CC-PVTZ
    Blend: AUG-CC-PVTZ
  Basis Set: (AUG-CC-PVTZ AUX)
    Blend: AUG-CC-PVTZ-JKFIT

    Orbital Energies [Eh]
    ---------------------

    Doubly Occupied:

       1A    -20.568416     2A     -1.351303     3A     -0.713772
       4A     -0.585109     5A     -0.510104

  @DF-RHF Final Energy:   -76.06017338380489

   => Energetics <=

    Nuclear Repulsion Energy =              9.1451655061833463
    One-Electron Energy =                -122.9532661406980480
    Two-Electron Energy =                  37.7479272507098074
    Total Energy =                        -76.0601733838048943

  Dipole Moment: [D]
     X:     1.8870      Y:    -0.5992      Z:    -0.2677     Total:     1.9978

    SAPT Results
  --------------------------------------------------------------------------------------------------------
    Electrostatics                 -9.50444872 [mEh]      -5.96413162 [kcal/mol]     -24.95392668 [kJ/mol]
      Elst10,r                    -10.15155009 [mEh]      -6.37019386 [kcal/mol]     -26.65289109 [kJ/mol]
      Elst12,r                      0.64710137 [mEh]       0.40606224 [kcal/mol]       1.69896441 [kJ/mol]

    Exchange                        0.04849828 [mEh]       0.03043313 [kcal/mol]       0.12733222 [kJ/mol]
      Exch10                        0.03666226 [mEh]       0.02300592 [kcal/mol]       0.09625675 [kJ/mol]
      Exch10(S^2)                   0.03666105 [mEh]       0.02300515 [kcal/mol]       0.09625357 [kJ/mol]
      Exch11(S^2)                  -0.00048265 [mEh]      -0.00030287 [kcal/mol]      -0.00126720 [kJ/mol]
      Exch12(S^2)                   0.01231867 [mEh]       0.00773008 [kcal/mol]       0.03234266 [kJ/mol]

    Induction                      -0.88806389 [mEh]      -0.55726850 [kcal/mol]      -2.33161141 [kJ/mol]
      Ind20,r                      -0.78579134 [mEh]      -0.49309151 [kcal/mol]      -2.06309488 [kJ/mol]
      Ind22                        -0.06990474 [mEh]      -0.04386589 [kcal/mol]      -0.18353488 [kJ/mol]
      Exch-Ind20,r                  0.00821290 [mEh]       0.00515368 [kcal/mol]       0.02156298 [kJ/mol]
      Exch-Ind22                    0.00073063 [mEh]       0.00045848 [kcal/mol]       0.00191826 [kJ/mol]
      delta HF,r (2)               -0.04131134 [mEh]      -0.02592325 [kcal/mol]      -0.10846290 [kJ/mol]

    Dispersion                     -0.36619399 [mEh]      -0.22979020 [kcal/mol]      -0.96144219 [kJ/mol]
      Disp20                       -0.33332226 [mEh]      -0.20916288 [kcal/mol]      -0.87513747 [kJ/mol]
      Disp21                        0.02142346 [mEh]       0.01344342 [kcal/mol]       0.05624729 [kJ/mol]
      Disp22 (SDQ)                  0.00352681 [mEh]       0.00221311 [kcal/mol]       0.00925964 [kJ/mol]
      Disp22 (T)                   -0.05714396 [mEh]      -0.03585838 [kcal/mol]      -0.15003146 [kJ/mol]
      Est. Disp22 (T)              -0.06098433 [mEh]      -0.03826825 [kcal/mol]      -0.16011434 [kJ/mol]
      Exch-Disp20                   0.00316233 [mEh]       0.00198439 [kcal/mol]       0.00830269 [kJ/mol]

  Total HF                        -10.93377760 [mEh]      -6.86104903 [kcal/mol]     -28.70662914 [kJ/mol]
  Total SAPT0                     -11.26393753 [mEh]      -7.06822751 [kcal/mol]     -29.57346392 [kJ/mol]
  Total SAPT2                     -10.67417426 [mEh]      -6.69814547 [kcal/mol]     -28.02504065 [kJ/mol]
  Total SAPT2+                    -10.71020832 [mEh]      -6.72075719 [kcal/mol]     -28.11964807 [kJ/mol]

  Special recipe for scaled SAPT0 (see Manual):
    Electrostatics sSAPT0         -10.15155009 [mEh]      -6.37019386 [kcal/mol]     -26.65289109 [kJ/mol]
    Exchange sSAPT0                 0.03666226 [mEh]       0.02300592 [kcal/mol]       0.09625675 [kJ/mol]
    Induction sSAPT0               -0.81888896 [mEh]      -0.51386058 [kcal/mol]      -2.14999266 [kJ/mol]
    Dispersion sSAPT0              -0.33015962 [mEh]      -0.20717829 [kcal/mol]      -0.86683395 [kJ/mol]
  Total sSAPT0                    -11.26393640 [mEh]      -7.06822681 [kcal/mol]     -29.57346096 [kJ/mol]
  --------------------------------------------------------------------------------------------------------

*** Psi4 exiting successfully. Buy a developer a beer!
