                               Psi4 1.4a2.dev224

  ==> Input File <==

--------------------------------------------------------------------------
#Generated by lconvert.py for sapt job

memory 50 GB

molecule  {
1 1
  C      -2.482940    0.145570    0.115880
  N      -3.741260    0.545110    0.294520
  N      -2.223000   -1.065030   -0.362490
  N      -1.472120    0.952660    0.413850
  H      -0.525470    0.627370    0.269800
  H      -1.631810    1.874140    0.777490
  H      -3.949510    1.458240    0.655420
  H      -4.513270   -0.056720    0.072690
  H      -2.962360   -1.701050   -0.598470
  H      -1.259910   -1.346150   -0.489510
--
0 1
  O       1.505050   -1.120640   -0.450130
  H       2.052890   -1.022360   -1.235470
  H       2.077770   -1.574740    0.176210
units angstrom
no_reorient
symmetry c1
}

set {
scf_type DF
basis aug-cc-pvtz
freeze_core True
guess SAD
}
energy('sapt2+')
--------------------------------------------------------------------------

  //              Dimer HF             //
    Molecular point group: c1
  Charge       = 1
  Multiplicity = 1
  Basis Set: AUG-CC-PVTZ
    Blend: AUG-CC-PVTZ
  Basis Set: (AUG-CC-PVTZ AUX)
    Blend: AUG-CC-PVTZ-JKFIT
  @DF-RHF Final Energy:  -280.69353559976378
    Total Energy =                       -280.6935355997637771
  //            Monomer A HF           //
    Molecular point group: c1
  Multiplicity = 1
  Basis Set: AUG-CC-PVTZ
    Blend: AUG-CC-PVTZ
  Basis Set: (AUG-CC-PVTZ AUX)
    Blend: AUG-CC-PVTZ-JKFIT
  @DF-RHF Final Energy:  -204.61551238655727
    Total Energy =                       -204.6155123865572705
  //            Monomer B HF           //
    Molecular point group: c1

    Geometry (in Angstrom), charge = 0, multiplicity = 1:

       Center              X                  Y                   Z               Mass
    ------------   -----------------  -----------------  -----------------  -----------------
      Gh(C)          -0.937469967753     0.297656622822     0.133052452628    12.000000000000
      Gh(N)          -2.195789967753     0.697196622822     0.311692452628    14.003074004430
      Gh(N)          -0.677529967753    -0.912943377178    -0.345317547372    14.003074004430
      Gh(N)           0.073350032247     1.104746622822     0.431022452628    14.003074004430
      Gh(H)           1.020000032247     0.779456622822     0.286972452628     1.007825032230
      Gh(H)          -0.086339967753     2.026226622822     0.794662452628     1.007825032230
      Gh(H)          -2.404039967753     1.610326622822     0.672592452628     1.007825032230
      Gh(H)          -2.967799967753     0.095366622822     0.089862452628     1.007825032230
      Gh(H)          -1.416889967753    -1.548963377178    -0.581297547372     1.007825032230
      Gh(H)           0.285560032247    -1.194063377178    -0.472337547372     1.007825032230
         O            3.050520032247    -0.968553377178    -0.432957547372    15.994914619570
         H            3.598360032247    -0.870273377178    -1.218297547372     1.007825032230
         H            3.623240032247    -1.422653377178     0.193382452628     1.007825032230

  Charge       = 0
  Multiplicity = 1
  Basis Set: AUG-CC-PVTZ
    Blend: AUG-CC-PVTZ
  Basis Set: (AUG-CC-PVTZ AUX)
    Blend: AUG-CC-PVTZ-JKFIT

    Orbital Energies [Eh]
    ---------------------

    Doubly Occupied:

       1A    -20.568323     2A     -1.351239     3A     -0.713710
       4A     -0.585070     5A     -0.510068

  @DF-RHF Final Energy:   -76.06021974273355

   => Energetics <=

    Nuclear Repulsion Energy =              9.1451533090021790
    One-Electron Energy =                -122.9539228197531600
    Two-Electron Energy =                  37.7485497680174262
    Total Energy =                        -76.0602197427335511

  Dipole Moment: [D]
     X:     1.8851      Y:    -0.5986      Z:    -0.2675     Total:     1.9958

    SAPT Results
  --------------------------------------------------------------------------------------------------------
    Electrostatics                -15.52514118 [mEh]      -9.74217317 [kcal/mol]     -40.76125256 [kJ/mol]
      Elst10,r                    -16.48318018 [mEh]     -10.34335172 [kcal/mol]     -43.27658360 [kJ/mol]
      Elst12,r                      0.95803900 [mEh]       0.60117855 [kcal/mol]       2.51533104 [kJ/mol]

    Exchange                        1.22141724 [mEh]       0.76645089 [kcal/mol]       3.20683053 [kJ/mol]
      Exch10                        1.00708137 [mEh]       0.63195310 [kcal/mol]       2.64409177 [kJ/mol]
      Exch10(S^2)                   1.00647072 [mEh]       0.63156991 [kcal/mol]       2.64248852 [kJ/mol]
      Exch11(S^2)                  -0.00203429 [mEh]      -0.00127654 [kcal/mol]      -0.00534104 [kJ/mol]
      Exch12(S^2)                   0.21637017 [mEh]       0.13577433 [kcal/mol]       0.56807979 [kJ/mol]

    Induction                      -2.51961517 [mEh]      -1.58108239 [kcal/mol]      -6.61524872 [kJ/mol]
      Ind20,r                      -2.26423456 [mEh]      -1.42082864 [kcal/mol]      -5.94474703 [kJ/mol]
      Ind22                        -0.21206691 [mEh]      -0.13307399 [kcal/mol]      -0.55678159 [kJ/mol]
      Exch-Ind20,r                  0.21165409 [mEh]       0.13281495 [kcal/mol]       0.55569775 [kJ/mol]
      Exch-Ind22                    0.01982340 [mEh]       0.01243937 [kcal/mol]       0.05204633 [kJ/mol]
      delta HF,r (2)               -0.27479119 [mEh]      -0.17243408 [kcal/mol]      -0.72146418 [kJ/mol]

    Dispersion                     -1.53145209 [mEh]      -0.96100070 [kcal/mol]      -4.02082692 [kJ/mol]
      Disp20                       -1.42038459 [mEh]      -0.89130479 [kcal/mol]      -3.72921924 [kJ/mol]
      Disp21                        0.04982570 [mEh]       0.03126610 [kcal/mol]       0.13081735 [kJ/mol]
      Disp22 (SDQ)                  0.01144365 [mEh]       0.00718100 [kcal/mol]       0.03004531 [kJ/mol]
      Disp22 (T)                   -0.22311060 [mEh]      -0.14000402 [kcal/mol]      -0.58577680 [kJ/mol]
      Est. Disp22 (T)              -0.24819916 [mEh]      -0.15574733 [kcal/mol]      -0.65164681 [kJ/mol]
      Exch-Disp20                   0.07586231 [mEh]       0.04760432 [kcal/mol]       0.19917648 [kJ/mol]

  Total HF                        -17.80347047 [mEh]     -11.17184639 [kcal/mol]     -46.74300529 [kJ/mol]
  Total SAPT0                     -19.14799275 [mEh]     -12.01554686 [kcal/mol]     -50.27304804 [kJ/mol]
  Total SAPT2                     -18.16786139 [mEh]     -11.40050514 [kcal/mol]     -47.69971351 [kJ/mol]
  Total SAPT2+                    -18.35479120 [mEh]     -11.51780537 [kcal/mol]     -48.19049767 [kJ/mol]

  Special recipe for scaled SAPT0 (see Manual):
    Electrostatics sSAPT0         -16.48318018 [mEh]     -10.34335172 [kcal/mol]     -43.27658360 [kJ/mol]
    Exchange sSAPT0                 1.00708137 [mEh]       0.63195310 [kcal/mol]       2.64409177 [kJ/mol]
    Induction sSAPT0               -2.32698619 [mEh]      -1.46020588 [kcal/mol]      -6.10950139 [kJ/mol]
    Dispersion sSAPT0              -1.34438411 [mEh]      -0.84361377 [kcal/mol]      -3.52968000 [kJ/mol]
  Total sSAPT0                    -19.14746911 [mEh]     -12.01521826 [kcal/mol]     -50.27167322 [kJ/mol]
  --------------------------------------------------------------------------------------------------------

*** Psi4 exiting successfully. Buy a developer a beer!
