                               Psi4 1.4a2.dev224

  ==> Input File <==

--------------------------------------------------------------------------
#Generated by lconvert.py for sapt job

memory 50 GB

molecule  {
-1 1
  C      -0.839930    0.480710   -0.369610
  C      -2.107280   -0.342000   -0.049330
  O      -2.042860   -1.580050   -0.264140
  O      -3.077170    0.326530    0.397130
  H      -0.506040    0.995110    0.531920
  H      -0.039800   -0.150690   -0.750280
  H      -1.084130    1.248810   -1.103930
--
0 1
  O      -5.609950   -2.798270    0.807510
  H      -5.366950   -1.858440    0.867420
  H      -4.748870   -3.080790    0.459380
units angstrom
no_reorient
symmetry c1
}

set {
scf_type DF
basis aug-cc-pvtz
freeze_core True
guess SAD
}
energy('sapt2+')
--------------------------------------------------------------------------

  //              Dimer HF             //
    Molecular point group: c1
  Charge       = -1
  Multiplicity = 1
  Basis Set: AUG-CC-PVTZ
    Blend: AUG-CC-PVTZ
  Basis Set: (AUG-CC-PVTZ AUX)
    Blend: AUG-CC-PVTZ-JKFIT
  @DF-RHF Final Energy:  -303.40307192936814
    Total Energy =                       -303.4030719293681386
  //            Monomer A HF           //
    Molecular point group: c1
  Multiplicity = 1
  Basis Set: AUG-CC-PVTZ
    Blend: AUG-CC-PVTZ
  Basis Set: (AUG-CC-PVTZ AUX)
    Blend: AUG-CC-PVTZ-JKFIT
  @DF-RHF Final Energy:  -227.32858510690525
    Total Energy =                       -227.3285851069052512
  //            Monomer B HF           //
    Molecular point group: c1

    Geometry (in Angstrom), charge = 0, multiplicity = 1:

       Center              X                  Y                   Z               Mass
    ------------   -----------------  -----------------  -----------------  -----------------
      Gh(C)           2.001128725557     1.337740242549    -0.499705808197    12.000000000000
      Gh(C)           0.733778725557     0.515030242549    -0.179425808197    12.000000000000
      Gh(O)           0.798198725557    -0.723019757451    -0.394235808197    15.994914619570
      Gh(O)          -0.236111274443     1.183560242549     0.267034191803    15.994914619570
      Gh(H)           2.335018725557     1.852140242549     0.401824191803     1.007825032230
      Gh(H)           2.801258725557     0.706340242549    -0.880375808197     1.007825032230
      Gh(H)           1.756928725557     2.105840242549    -1.234025808197     1.007825032230
         O           -2.768891274443    -1.941239757451     0.677414191803    15.994914619570
         H           -2.525891274443    -1.001409757451     0.737324191803     1.007825032230
         H           -1.907811274443    -2.223759757451     0.329284191803     1.007825032230

  Charge       = 0
  Multiplicity = 1
  Basis Set: AUG-CC-PVTZ
    Blend: AUG-CC-PVTZ
  Basis Set: (AUG-CC-PVTZ AUX)
    Blend: AUG-CC-PVTZ-JKFIT

    Orbital Energies [Eh]
    ---------------------

    Doubly Occupied:

       1A    -20.573841     2A     -1.353516     3A     -0.690211
       4A     -0.601554     5A     -0.512015

  @DF-RHF Final Energy:   -76.05623942946683

   => Energetics <=

    Nuclear Repulsion Energy =              9.0837215706608188
    One-Electron Energy =                -122.8176459938089948
    Two-Electron Energy =                  37.6776849936813534
    Total Energy =                        -76.0562394294668280

  Dipole Moment: [D]
     X:     1.8039      Y:     1.0729      Z:    -0.4711     Total:     2.1510

    SAPT Results
  --------------------------------------------------------------------------------------------------------
    Electrostatics                -15.78706457 [mEh]      -9.90653258 [kcal/mol]     -41.44893233 [kJ/mol]
      Elst10,r                    -16.90764175 [mEh]     -10.60970538 [kcal/mol]     -44.39100730 [kJ/mol]
      Elst12,r                      1.12057717 [mEh]       0.70317279 [kcal/mol]       2.94207497 [kJ/mol]

    Exchange                        1.03315613 [mEh]       0.64831526 [kcal/mol]       2.71255106 [kJ/mol]
      Exch10                        0.67899576 [mEh]       0.42607627 [kcal/mol]       1.78270312 [kJ/mol]
      Exch10(S^2)                   0.67868422 [mEh]       0.42588078 [kcal/mol]       1.78188518 [kJ/mol]
      Exch11(S^2)                   0.02180476 [mEh]       0.01368269 [kcal/mol]       0.05724839 [kJ/mol]
      Exch12(S^2)                   0.33235561 [mEh]       0.20855630 [kcal/mol]       0.87259954 [kJ/mol]

    Induction                      -2.31586502 [mEh]      -1.45322724 [kcal/mol]      -6.08030277 [kJ/mol]
      Ind20,r                      -2.21684420 [mEh]      -1.39109074 [kcal/mol]      -5.82032365 [kJ/mol]
      Ind22                        -0.34180191 [mEh]      -0.21448394 [kcal/mol]      -0.89740079 [kJ/mol]
      Exch-Ind20,r                  0.28980891 [mEh]       0.18185783 [kcal/mol]       0.76089318 [kJ/mol]
      Exch-Ind22                    0.04468390 [mEh]       0.02803957 [kcal/mol]       0.11731755 [kJ/mol]
      delta HF,r (2)               -0.09171171 [mEh]      -0.05754997 [kcal/mol]      -0.24078907 [kJ/mol]

    Dispersion                     -1.42282588 [mEh]      -0.89283672 [kcal/mol]      -3.73562884 [kJ/mol]
      Disp20                       -1.17249098 [mEh]      -0.73574920 [kcal/mol]      -3.07837464 [kJ/mol]
      Disp21                        0.04260814 [mEh]       0.02673701 [kcal/mol]       0.11186766 [kJ/mol]
      Disp22 (SDQ)                 -0.10987822 [mEh]      -0.06894963 [kcal/mol]      -0.28848524 [kJ/mol]
      Disp22 (T)                   -0.24852229 [mEh]      -0.15595009 [kcal/mol]      -0.65249519 [kJ/mol]
      Est. Disp22 (T)              -0.28139193 [mEh]      -0.17657610 [kcal/mol]      -0.73879442 [kJ/mol]
      Exch-Disp20                   0.09832711 [mEh]       0.06170119 [kcal/mol]       0.25815779 [kJ/mol]

  Total HF                        -18.24739300 [mEh]     -11.45041198 [kcal/mol]     -47.90852371 [kJ/mol]
  Total SAPT0                     -19.32155687 [mEh]     -12.12445998 [kcal/mol]     -50.72874056 [kJ/mol]
  Total SAPT2                     -18.14393733 [mEh]     -11.38549257 [kcal/mol]     -47.63690090 [kJ/mol]
  Total SAPT2+                    -18.49259934 [mEh]     -11.60428128 [kcal/mol]     -48.55231289 [kJ/mol]

  Special recipe for scaled SAPT0 (see Manual):
    Electrostatics sSAPT0         -16.90764175 [mEh]     -10.60970538 [kcal/mol]     -44.39100730 [kJ/mol]
    Exchange sSAPT0                 0.67899576 [mEh]       0.42607627 [kcal/mol]       1.78270312 [kJ/mol]
    Induction sSAPT0               -2.01834773 [mEh]      -1.26653232 [kcal/mol]      -5.29917123 [kJ/mol]
    Dispersion sSAPT0              -1.07402840 [mEh]      -0.67396300 [kcal/mol]      -2.81986118 [kJ/mol]
  Total sSAPT0                    -19.32102212 [mEh]     -12.12412442 [kcal/mol]     -50.72733658 [kJ/mol]
  --------------------------------------------------------------------------------------------------------

*** Psi4 exiting successfully. Buy a developer a beer!
