                               Psi4 1.4a2.dev224

  ==> Input File <==

--------------------------------------------------------------------------
#Generated by lconvert.py for sapt job

memory 50 GB

molecule  {
-1 1
  C      -0.839930    0.480710   -0.369610
  C      -2.107280   -0.342000   -0.049330
  O      -2.042860   -1.580050   -0.264140
  O      -3.077170    0.326530    0.397130
  H      -0.506040    0.995110    0.531920
  H      -0.039800   -0.150690   -0.750280
  H      -1.084130    1.248810   -1.103930
--
0 1
  O      -5.180620   -2.388590    0.719330
  H      -4.937620   -1.448760    0.779240
  H      -4.319540   -2.671110    0.371200
units angstrom
no_reorient
symmetry c1
}

set {
scf_type DF
basis aug-cc-pvtz
freeze_core True
guess SAD
}
energy('sapt2+')
--------------------------------------------------------------------------

  //              Dimer HF             //
    Molecular point group: c1
  Charge       = -1
  Multiplicity = 1
  Basis Set: AUG-CC-PVTZ
    Blend: AUG-CC-PVTZ
  Basis Set: (AUG-CC-PVTZ AUX)
    Blend: AUG-CC-PVTZ-JKFIT
  @DF-RHF Final Energy:  -303.40971025122462
    Total Energy =                       -303.4097102512246238
  //            Monomer A HF           //
    Molecular point group: c1
  Multiplicity = 1
  Basis Set: AUG-CC-PVTZ
    Blend: AUG-CC-PVTZ
  Basis Set: (AUG-CC-PVTZ AUX)
    Blend: AUG-CC-PVTZ-JKFIT
  @DF-RHF Final Energy:  -227.32862691045625
    Total Energy =                       -227.3286269104562507
  //            Monomer B HF           //
    Molecular point group: c1

    Geometry (in Angstrom), charge = 0, multiplicity = 1:

       Center              X                  Y                   Z               Mass
    ------------   -----------------  -----------------  -----------------  -----------------
      Gh(C)           1.900738082576     1.241944377791    -0.479086594776    12.000000000000
      Gh(C)           0.633388082576     0.419234377791    -0.158806594776    12.000000000000
      Gh(O)           0.697808082576    -0.818815622209    -0.373616594776    15.994914619570
      Gh(O)          -0.336501917424     1.087764377791     0.287653405224    15.994914619570
      Gh(H)           2.234628082576     1.756344377791     0.422443405224     1.007825032230
      Gh(H)           2.700868082576     0.610544377791    -0.859756594776     1.007825032230
      Gh(H)           1.656538082576     2.010044377791    -1.213406594776     1.007825032230
         O           -2.439951917424    -1.627355622209     0.609853405224    15.994914619570
         H           -2.196951917424    -0.687525622209     0.669763405224     1.007825032230
         H           -1.578871917424    -1.909875622209     0.261723405224     1.007825032230

  Charge       = 0
  Multiplicity = 1
  Basis Set: AUG-CC-PVTZ
    Blend: AUG-CC-PVTZ
  Basis Set: (AUG-CC-PVTZ AUX)
    Blend: AUG-CC-PVTZ-JKFIT

    Orbital Energies [Eh]
    ---------------------

    Doubly Occupied:

       1A    -20.573832     2A     -1.353501     3A     -0.690195
       4A     -0.601545     5A     -0.512005

  @DF-RHF Final Energy:   -76.05625398318450

   => Energetics <=

    Nuclear Repulsion Energy =              9.0837215706608223
    One-Electron Energy =                -122.8177936185236376
    Two-Electron Energy =                  37.6778180646783127
    Total Energy =                        -76.0562539831844902

  Dipole Moment: [D]
     X:     1.8036      Y:     1.0728      Z:    -0.4710     Total:     2.1507

    SAPT Results
  --------------------------------------------------------------------------------------------------------
    Electrostatics                -23.88258973 [mEh]     -14.98655131 [kcal/mol]     -62.70373069 [kJ/mol]
      Elst10,r                    -24.83411225 [mEh]     -15.58364071 [kcal/mol]     -65.20195274 [kJ/mol]
      Elst12,r                      0.95152253 [mEh]       0.59708940 [kcal/mol]       2.49822205 [kJ/mol]

    Exchange                        5.70155518 [mEh]       3.57777989 [kcal/mol]      14.96943106 [kJ/mol]
      Exch10                        4.15102129 [mEh]       2.60480518 [kcal/mol]      10.89850489 [kJ/mol]
      Exch10(S^2)                   4.14320395 [mEh]       2.59989973 [kcal/mol]      10.87798048 [kJ/mol]
      Exch11(S^2)                   0.10584828 [mEh]       0.06642080 [kcal/mol]       0.27790463 [kJ/mol]
      Exch12(S^2)                   1.44468561 [mEh]       0.90655391 [kcal/mol]       3.79302154 [kJ/mol]

    Induction                      -4.86523063 [mEh]      -3.05297831 [kcal/mol]     -12.77366127 [kJ/mol]
      Ind20,r                      -5.14040510 [mEh]      -3.22565290 [kcal/mol]     -13.49613173 [kJ/mol]
      Ind22                        -1.02704407 [mEh]      -0.64447989 [kcal/mol]      -2.69650384 [kJ/mol]
      Exch-Ind20,r                  1.54195555 [mEh]       0.96759171 [kcal/mol]       4.04840373 [kJ/mol]
      Exch-Ind22                    0.30808006 [mEh]       0.19332316 [kcal/mol]       0.80886408 [kJ/mol]
      delta HF,r (2)               -0.54781707 [mEh]      -0.34376040 [kcal/mol]      -1.43829351 [kJ/mol]

    Dispersion                     -3.81437013 [mEh]      -2.39355339 [kcal/mol]     -10.01462739 [kJ/mol]
      Disp20                       -3.38139597 [mEh]      -2.12185801 [kcal/mol]      -8.87785390 [kJ/mol]
      Disp21                        0.11558097 [mEh]       0.07252815 [kcal/mol]       0.30345779 [kJ/mol]
      Disp22 (SDQ)                 -0.27606578 [mEh]      -0.17323389 [kcal/mol]      -0.72481060 [kJ/mol]
      Disp22 (T)                   -0.66607669 [mEh]      -0.41796943 [kcal/mol]      -1.74878411 [kJ/mol]
      Est. Disp22 (T)              -0.77144033 [mEh]      -0.48408611 [kcal/mol]      -2.02541630 [kJ/mol]
      Exch-Disp20                   0.49895098 [mEh]       0.31309647 [kcal/mol]       1.30999562 [kJ/mol]

  Total HF                        -24.82935758 [mEh]     -15.58065711 [kcal/mol]     -65.18946936 [kJ/mol]
  Total SAPT0                     -27.71180258 [mEh]     -17.38941865 [kcal/mol]     -72.75732764 [kJ/mol]
  Total SAPT2                     -25.92871017 [mEh]     -16.27051127 [kcal/mol]     -68.07581917 [kJ/mol]
  Total SAPT2+                    -26.86063531 [mEh]     -16.85530313 [kcal/mol]     -70.52258828 [kJ/mol]

  Special recipe for scaled SAPT0 (see Manual):
    Electrostatics sSAPT0         -24.83411225 [mEh]     -15.58364071 [kcal/mol]     -65.20195274 [kJ/mol]
    Exchange sSAPT0                 4.15102129 [mEh]       2.60480518 [kcal/mol]      10.89850489 [kJ/mol]
    Induction sSAPT0               -4.13752213 [mEh]      -2.59633433 [kcal/mol]     -10.86306284 [kJ/mol]
    Dispersion sSAPT0              -2.87961542 [mEh]      -1.80698596 [kcal/mol]      -7.56042924 [kJ/mol]
  Total sSAPT0                    -27.70022851 [mEh]     -17.38215582 [kcal/mol]     -72.72693993 [kJ/mol]
  --------------------------------------------------------------------------------------------------------

*** Psi4 exiting successfully. Buy a developer a beer!
