                               Psi4 1.4a2.dev224

  ==> Input File <==

--------------------------------------------------------------------------
#Generated by lconvert.py for sapt job

memory 50 GB

molecule  {
-1 1
  C      -0.839930    0.480710   -0.369610
  C      -2.107280   -0.342000   -0.049330
  O      -2.042860   -1.580050   -0.264140
  O      -3.077170    0.326530    0.397130
  H      -0.506040    0.995110    0.531920
  H      -0.039800   -0.150690   -0.750280
  H      -1.084130    1.248810   -1.103930
--
0 1
  O      -6.039290   -3.207950    0.895690
  H      -5.796280   -2.268120    0.955600
  H      -5.178210   -3.490470    0.547560
units angstrom
no_reorient
symmetry c1
}

set {
scf_type DF
basis aug-cc-pvtz
freeze_core True
guess SAD
}
energy('sapt2+')
--------------------------------------------------------------------------

  //              Dimer HF             //
    Molecular point group: c1
  Charge       = -1
  Multiplicity = 1
  Basis Set: AUG-CC-PVTZ
    Blend: AUG-CC-PVTZ
  Basis Set: (AUG-CC-PVTZ AUX)
    Blend: AUG-CC-PVTZ-JKFIT
  @DF-RHF Final Energy:  -303.39836597511186
    Total Energy =                       -303.3983659751118580
  //            Monomer A HF           //
    Molecular point group: c1
  Multiplicity = 1
  Basis Set: AUG-CC-PVTZ
    Blend: AUG-CC-PVTZ
  Basis Set: (AUG-CC-PVTZ AUX)
    Blend: AUG-CC-PVTZ-JKFIT
  @DF-RHF Final Energy:  -227.32857713956491
    Total Energy =                       -227.3285771395649135
  //            Monomer B HF           //
    Molecular point group: c1

    Geometry (in Angstrom), charge = 0, multiplicity = 1:

       Center              X                  Y                   Z               Mass
    ------------   -----------------  -----------------  -----------------  -----------------
      Gh(C)           2.101521576002     1.433536107307    -0.520325021618    12.000000000000
      Gh(C)           0.834171576002     0.610826107307    -0.200045021618    12.000000000000
      Gh(O)           0.898591576002    -0.627223892693    -0.414855021618    15.994914619570
      Gh(O)          -0.135718423998     1.279356107307     0.246414978382    15.994914619570
      Gh(H)           2.435411576002     1.947936107307     0.381204978382     1.007825032230
      Gh(H)           2.901651576002     0.802136107307    -0.900995021618     1.007825032230
      Gh(H)           1.857321576002     2.201636107307    -1.254645021618     1.007825032230
         O           -3.097838423998    -2.255123892693     0.744974978382    15.994914619570
         H           -2.854828423998    -1.315293892693     0.804884978382     1.007825032230
         H           -2.236758423998    -2.537643892693     0.396844978382     1.007825032230

  Charge       = 0
  Multiplicity = 1
  Basis Set: AUG-CC-PVTZ
    Blend: AUG-CC-PVTZ
  Basis Set: (AUG-CC-PVTZ AUX)
    Blend: AUG-CC-PVTZ-JKFIT

    Orbital Energies [Eh]
    ---------------------

    Doubly Occupied:

       1A    -20.573843     2A     -1.353521     3A     -0.690215
       4A     -0.601557     5A     -0.512022

  @DF-RHF Final Energy:   -76.05623183045947

   => Energetics <=

    Nuclear Repulsion Energy =              9.0837115088866902
    One-Electron Energy =                -122.8175674533394783
    Two-Electron Energy =                  37.6776241139933177
    Total Energy =                        -76.0562318304594669

  Dipole Moment: [D]
     X:     1.8040      Y:     1.0729      Z:    -0.4711     Total:     2.1512

    SAPT Results
  --------------------------------------------------------------------------------------------------------
    Electrostatics                -11.58612964 [mEh]      -7.27040611 [kcal/mol]     -30.41937917 [kJ/mol]
      Elst10,r                    -12.56192835 [mEh]      -7.88272905 [kcal/mol]     -32.98133833 [kJ/mol]
      Elst12,r                      0.97579871 [mEh]       0.61232293 [kcal/mol]       2.56195916 [kJ/mol]

    Exchange                        0.19642549 [mEh]       0.12325885 [kcal/mol]       0.51571504 [kJ/mol]
      Exch10                        0.11720765 [mEh]       0.07354891 [kcal/mol]       0.30772863 [kJ/mol]
      Exch10(S^2)                   0.11719478 [mEh]       0.07354084 [kcal/mol]       0.30769486 [kJ/mol]
      Exch11(S^2)                   0.00457061 [mEh]       0.00286810 [kcal/mol]       0.01200014 [kJ/mol]
      Exch12(S^2)                   0.07464723 [mEh]       0.04684184 [kcal/mol]       0.19598627 [kJ/mol]

    Induction                      -1.24456734 [mEh]      -0.78097780 [kcal/mol]      -3.26761111 [kJ/mol]
      Ind20,r                      -1.15294499 [mEh]      -0.72348390 [kcal/mol]      -3.02705665 [kJ/mol]
      Ind22                        -0.13927342 [mEh]      -0.08739539 [kcal/mol]      -0.36566232 [kJ/mol]
      Exch-Ind20,r                  0.05786906 [mEh]       0.03631338 [kcal/mol]       0.15193519 [kJ/mol]
      Exch-Ind22                    0.00699047 [mEh]       0.00438658 [kcal/mol]       0.01835346 [kJ/mol]
      delta HF,r (2)               -0.01720846 [mEh]      -0.01079847 [kcal/mol]      -0.04518080 [kJ/mol]

    Dispersion                     -0.56962727 [mEh]      -0.35744651 [kcal/mol]      -1.49555619 [kJ/mol]
      Disp20                       -0.45725627 [mEh]      -0.28693264 [kcal/mol]      -1.20052617 [kJ/mol]
      Disp21                        0.02314329 [mEh]       0.01452263 [kcal/mol]       0.06076269 [kJ/mol]
      Disp22 (SDQ)                 -0.04344946 [mEh]      -0.02726495 [kcal/mol]      -0.11407654 [kJ/mol]
      Disp22 (T)                   -0.10045894 [mEh]      -0.06303894 [kcal/mol]      -0.26375491 [kJ/mol]
      Est. Disp22 (T)              -0.11131429 [mEh]      -0.06985077 [kcal/mol]      -0.29225562 [kJ/mol]
      Exch-Disp20                   0.01924946 [mEh]       0.01207922 [kcal/mol]       0.05053945 [kJ/mol]

  Total HF                        -13.55700509 [mEh]      -8.50714913 [kcal/mol]     -35.59391195 [kJ/mol]
  Total SAPT0                     -13.99501190 [mEh]      -8.78200255 [kcal/mol]     -36.74389868 [kJ/mol]
  Total SAPT2                     -13.07227830 [mEh]      -8.20297848 [kcal/mol]     -34.32126196 [kJ/mol]
  Total SAPT2+                    -13.20389876 [mEh]      -8.28557157 [kcal/mol]     -34.66683143 [kJ/mol]

  Special recipe for scaled SAPT0 (see Manual):
    Electrostatics sSAPT0         -12.56192835 [mEh]      -7.88272905 [kcal/mol]     -32.98133833 [kJ/mol]
    Exchange sSAPT0                 0.11720765 [mEh]       0.07354891 [kcal/mol]       0.30772863 [kJ/mol]
    Induction sSAPT0               -1.11226533 [mEh]      -0.69795703 [kcal/mol]      -2.92025222 [kJ/mol]
    Dispersion sSAPT0              -0.43800047 [mEh]      -0.27484944 [kcal/mol]      -1.14997008 [kJ/mol]
  Total sSAPT0                    -13.99498650 [mEh]      -8.78198661 [kcal/mol]     -36.74383199 [kJ/mol]
  --------------------------------------------------------------------------------------------------------

*** Psi4 exiting successfully. Buy a developer a beer!
