                               Psi4 1.4a2.dev224

  ==> Input File <==

--------------------------------------------------------------------------
#Generated by lconvert.py for sapt job

memory 50 GB

molecule  {
0 1
  C      -0.862230   -0.933550   -0.246020
  C      -3.193910    0.461080   -0.019760
  S      -2.332740   -0.567710   -1.229450
  H      -1.136270   -1.462460    0.664020
  H      -0.216530   -1.567910   -0.847800
  H      -0.331130   -0.015790   -0.003650
  H      -3.400560   -0.108030    0.883810
  H      -2.602360    1.342710    0.216650
  H      -4.133320    0.774680   -0.467680
--
0 1
  O      -3.881910   -3.525810    1.034020
  H      -3.707410   -3.096300    0.185990
  H      -4.375590   -4.312530    0.796160
units angstrom
no_reorient
symmetry c1
}

set {
scf_type DF
basis aug-cc-pvtz
freeze_core True
guess SAD
}
energy('sapt2+')
--------------------------------------------------------------------------

  //              Dimer HF             //
    Molecular point group: c1
  Charge       = 0
  Multiplicity = 1
  Basis Set: AUG-CC-PVTZ
    Blend: AUG-CC-PVTZ
  Basis Set: (AUG-CC-PVTZ AUX)
    Blend: AUG-CC-PVTZ-JKFIT
  @DF-RHF Final Energy:  -552.86695631956491
    Total Energy =                       -552.8669563195649062
  //            Monomer A HF           //
    Molecular point group: c1
  Multiplicity = 1
  Basis Set: AUG-CC-PVTZ
    Blend: AUG-CC-PVTZ
  Basis Set: (AUG-CC-PVTZ AUX)
    Blend: AUG-CC-PVTZ-JKFIT
  @DF-RHF Final Energy:  -476.80343897057992
    Total Energy =                       -476.8034389705799185
  //            Monomer B HF           //
    Molecular point group: c1

    Geometry (in Angstrom), charge = 0, multiplicity = 1:

       Center              X                  Y                   Z               Mass
    ------------   -----------------  -----------------  -----------------  -----------------
      Gh(C)           1.704395062086     0.175130628571     0.060362829983    12.000000000000
      Gh(C)          -0.627284937914     1.569760628571     0.286622829983    12.000000000000
      Gh(S)           0.233885062086     0.540970628571    -0.923067170017    31.972071174400
      Gh(H)           1.430355062086    -0.353779371429     0.970402829983     1.007825032230
      Gh(H)           2.350095062086    -0.459229371429    -0.541417170017     1.007825032230
      Gh(H)           2.235495062086     1.092890628571     0.302732829983     1.007825032230
      Gh(H)          -0.833934937914     1.000650628571     1.190192829983     1.007825032230
      Gh(H)          -0.035734937914     2.451390628571     0.523032829983     1.007825032230
      Gh(H)          -1.566694937914     1.883360628571    -0.161297170017     1.007825032230
         O           -1.315284937914    -2.417129371429     1.340402829983    15.994914619570
         H           -1.140784937914    -1.987619371429     0.492372829983     1.007825032230
         H           -1.808964937914    -3.203849371429     1.102542829983     1.007825032230

  Charge       = 0
  Multiplicity = 1
  Basis Set: AUG-CC-PVTZ
    Blend: AUG-CC-PVTZ
  Basis Set: (AUG-CC-PVTZ AUX)
    Blend: AUG-CC-PVTZ-JKFIT

    Orbital Energies [Eh]
    ---------------------

    Doubly Occupied:

       1A    -20.568423     2A     -1.351297     3A     -0.713684
       4A     -0.585128     5A     -0.510104

  @DF-RHF Final Energy:   -76.06015122762270

   => Energetics <=

    Nuclear Repulsion Energy =              9.1448260298246584
    One-Electron Energy =                -122.9526785369943838
    Two-Electron Energy =                  37.7477012795470301
    Total Energy =                        -76.0601512276226970

  Dipole Moment: [D]
     X:    -0.5390      Y:    -0.6042      Z:    -1.8272     Total:     1.9985

    SAPT Results
  --------------------------------------------------------------------------------------------------------
    Electrostatics                 -3.56905710 [mEh]      -2.23961714 [kcal/mol]      -9.37055813 [kJ/mol]
      Elst10,r                     -3.76651809 [mEh]      -2.36352578 [kcal/mol]      -9.88899187 [kJ/mol]
      Elst12,r                      0.19746098 [mEh]       0.12390864 [kcal/mol]       0.51843374 [kJ/mol]

    Exchange                        1.11222186 [mEh]       0.69792976 [kcal/mol]       2.92013810 [kJ/mol]
      Exch10                        0.97263755 [mEh]       0.61033928 [kcal/mol]       2.55365953 [kJ/mol]
      Exch10(S^2)                   0.97196451 [mEh]       0.60991694 [kcal/mol]       2.55189246 [kJ/mol]
      Exch11(S^2)                   0.03588536 [mEh]       0.02251840 [kcal/mol]       0.09421700 [kJ/mol]
      Exch12(S^2)                   0.10369895 [mEh]       0.06507208 [kcal/mol]       0.27226156 [kJ/mol]

    Induction                      -0.59504882 [mEh]      -0.37339877 [kcal/mol]      -1.56230046 [kJ/mol]
      Ind20,r                      -0.75084525 [mEh]      -0.47116251 [kcal/mol]      -1.97134394 [kJ/mol]
      Ind22                        -0.03922246 [mEh]      -0.02461246 [kcal/mol]      -0.10297855 [kJ/mol]
      Exch-Ind20,r                  0.31422616 [mEh]       0.19717989 [kcal/mol]       0.82500066 [kJ/mol]
      Exch-Ind22                    0.01641446 [mEh]       0.01030023 [kcal/mol]       0.04309617 [kJ/mol]
      delta HF,r (2)               -0.13562173 [mEh]      -0.08510392 [kcal/mol]      -0.35607481 [kJ/mol]

    Dispersion                     -1.72720573 [mEh]      -1.08383796 [kcal/mol]      -4.53477802 [kJ/mol]
      Disp20                       -1.69097602 [mEh]      -1.06110347 [kcal/mol]      -4.43965692 [kJ/mol]
      Disp21                        0.12908077 [mEh]       0.08099941 [kcal/mol]       0.33890152 [kJ/mol]
      Disp22 (SDQ)                  0.03419964 [mEh]       0.02146060 [kcal/mol]       0.08979115 [kJ/mol]
      Disp22 (T)                   -0.27631457 [mEh]      -0.17339001 [kcal/mol]      -0.72546382 [kJ/mol]
      Est. Disp22 (T)              -0.30387708 [mEh]      -0.19068575 [kcal/mol]      -0.79782917 [kJ/mol]
      Exch-Disp20                   0.10436695 [mEh]       0.06549125 [kcal/mol]       0.27401540 [kJ/mol]

  Total HF                         -3.36612136 [mEh]      -2.11227304 [kcal/mol]      -8.83775042 [kJ/mol]
  Total SAPT0                      -4.95273042 [mEh]      -3.10788526 [kcal/mol]     -13.00339194 [kJ/mol]
  Total SAPT2                      -4.63849312 [mEh]      -2.91069838 [kcal/mol]     -12.17836201 [kJ/mol]
  Total SAPT2+                     -4.77908979 [mEh]      -2.99892412 [kcal/mol]     -12.54749851 [kJ/mol]

  Special recipe for scaled SAPT0 (see Manual):
    Electrostatics sSAPT0          -3.76651809 [mEh]      -2.36352578 [kcal/mol]      -9.88899187 [kJ/mol]
    Exchange sSAPT0                 0.97263755 [mEh]       0.61033928 [kcal/mol]       2.55365953 [kJ/mol]
    Induction sSAPT0               -0.57158761 [mEh]      -0.35867664 [kcal/mol]      -1.50070306 [kJ/mol]
    Dispersion sSAPT0              -1.58639210 [mEh]      -0.99547607 [kcal/mol]      -4.16507189 [kJ/mol]
  Total sSAPT0                     -4.95186025 [mEh]      -3.10733922 [kcal/mol]     -13.00110729 [kJ/mol]
  --------------------------------------------------------------------------------------------------------

*** Psi4 exiting successfully. Buy a developer a beer!
