                               Psi4 1.4a2.dev224

  ==> Input File <==

--------------------------------------------------------------------------
#Generated by lconvert.py for sapt job

memory 50 GB

molecule  {
0 1
  C      -0.862230   -0.933550   -0.246020
  C      -3.193910    0.461080   -0.019760
  S      -2.332740   -0.567710   -1.229450
  H      -1.136270   -1.462460    0.664020
  H      -0.216530   -1.567910   -0.847800
  H      -0.331130   -0.015790   -0.003650
  H      -3.400560   -0.108030    0.883810
  H      -2.602360    1.342710    0.216650
  H      -4.133320    0.774680   -0.467680
--
0 1
  O      -4.250130   -4.175390    1.242410
  H      -4.075630   -3.745890    0.394380
  H      -4.743810   -4.962120    1.004550
units angstrom
no_reorient
symmetry c1
}

set {
scf_type DF
basis aug-cc-pvtz
freeze_core True
guess SAD
}
energy('sapt2+')
--------------------------------------------------------------------------

  //              Dimer HF             //
    Molecular point group: c1
  Charge       = 0
  Multiplicity = 1
  Basis Set: AUG-CC-PVTZ
    Blend: AUG-CC-PVTZ
  Basis Set: (AUG-CC-PVTZ AUX)
    Blend: AUG-CC-PVTZ-JKFIT
  @DF-RHF Final Energy:  -552.86534893312660
    Total Energy =                       -552.8653489331265973
  //            Monomer A HF           //
    Molecular point group: c1
  Multiplicity = 1
  Basis Set: AUG-CC-PVTZ
    Blend: AUG-CC-PVTZ
  Basis Set: (AUG-CC-PVTZ AUX)
    Blend: AUG-CC-PVTZ-JKFIT
  @DF-RHF Final Energy:  -476.80341653914365
    Total Energy =                       -476.8034165391436545
  //            Monomer B HF           //
    Molecular point group: c1

    Geometry (in Angstrom), charge = 0, multiplicity = 1:

       Center              X                  Y                   Z               Mass
    ------------   -----------------  -----------------  -----------------  -----------------
      Gh(C)           1.787262542166     0.321318099244     0.013464904358    12.000000000000
      Gh(C)          -0.544417457834     1.715948099244     0.239724904358    12.000000000000
      Gh(S)           0.316752542166     0.687158099244    -0.969965095642    31.972071174400
      Gh(H)           1.513222542166    -0.207591900756     0.923504904358     1.007825032230
      Gh(H)           2.432962542166    -0.313041900756    -0.588315095642     1.007825032230
      Gh(H)           2.318362542166     1.239078099244     0.255834904358     1.007825032230
      Gh(H)          -0.751067457834     1.146838099244     1.143294904358     1.007825032230
      Gh(H)           0.047132542166     2.597578099244     0.476134904358     1.007825032230
      Gh(H)          -1.483827457834     2.029548099244    -0.208195095642     1.007825032230
         O           -1.600637457834    -2.920521900756     1.501894904358    15.994914619570
         H           -1.426137457834    -2.491021900756     0.653864904358     1.007825032230
         H           -2.094317457834    -3.707251900756     1.264034904358     1.007825032230

  Charge       = 0
  Multiplicity = 1
  Basis Set: AUG-CC-PVTZ
    Blend: AUG-CC-PVTZ
  Basis Set: (AUG-CC-PVTZ AUX)
    Blend: AUG-CC-PVTZ-JKFIT

    Orbital Energies [Eh]
    ---------------------

    Doubly Occupied:

       1A    -20.568438     2A     -1.351308     3A     -0.713693
       4A     -0.585143     5A     -0.510110

  @DF-RHF Final Energy:   -76.06013689567531

   => Energetics <=

    Nuclear Repulsion Energy =              9.1448083810782901
    One-Electron Energy =                -122.9525052850845981
    Two-Electron Energy =                  37.7475600083309928
    Total Energy =                        -76.0601368956753134

  Dipole Moment: [D]
     X:    -0.5390      Y:    -0.6043      Z:    -1.8269     Total:     1.9984

    SAPT Results
  --------------------------------------------------------------------------------------------------------
    Electrostatics                 -1.62351507 [mEh]      -1.01877109 [kcal/mol]      -4.26253822 [kJ/mol]
      Elst10,r                     -1.75816388 [mEh]      -1.10326449 [kcal/mol]      -4.61605863 [kJ/mol]
      Elst12,r                      0.13464881 [mEh]       0.08449341 [kcal/mol]       0.35352041 [kJ/mol]

    Exchange                        0.09869801 [mEh]       0.06193394 [kcal/mol]       0.25913160 [kJ/mol]
      Exch10                        0.08417138 [mEh]       0.05281834 [kcal/mol]       0.22099194 [kJ/mol]
      Exch10(S^2)                   0.08416450 [mEh]       0.05281402 [kcal/mol]       0.22097385 [kJ/mol]
      Exch11(S^2)                   0.00278989 [mEh]       0.00175068 [kcal/mol]       0.00732486 [kJ/mol]
      Exch12(S^2)                   0.01173674 [mEh]       0.00736491 [kcal/mol]       0.03081480 [kJ/mol]

    Induction                      -0.12399194 [mEh]      -0.07780611 [kcal/mol]      -0.32554078 [kJ/mol]
      Ind20,r                      -0.13557086 [mEh]      -0.08507200 [kcal/mol]      -0.35594124 [kJ/mol]
      Ind22                        -0.00312416 [mEh]      -0.00196044 [kcal/mol]      -0.00820248 [kJ/mol]
      Exch-Ind20,r                  0.02768701 [mEh]       0.01737386 [kcal/mol]       0.07269223 [kJ/mol]
      Exch-Ind22                    0.00063803 [mEh]       0.00040037 [kcal/mol]       0.00167515 [kJ/mol]
      delta HF,r (2)               -0.01362196 [mEh]      -0.00854791 [kcal/mol]      -0.03576445 [kJ/mol]

    Dispersion                     -0.54106404 [mEh]      -0.33952281 [kcal/mol]      -1.42056344 [kJ/mol]
      Disp20                       -0.51876904 [mEh]      -0.32553249 [kcal/mol]      -1.36202793 [kJ/mol]
      Disp21                        0.05138196 [mEh]       0.03224267 [kcal/mol]       0.13490332 [kJ/mol]
      Disp22 (SDQ)                  0.01131809 [mEh]       0.00710221 [kcal/mol]       0.02971565 [kJ/mol]
      Disp22 (T)                   -0.08955440 [mEh]      -0.05619623 [kcal/mol]      -0.23512504 [kJ/mol]
      Est. Disp22 (T)              -0.09573419 [mEh]      -0.06007411 [kcal/mol]      -0.25135009 [kJ/mol]
      Exch-Disp20                   0.01073915 [mEh]       0.00673892 [kcal/mol]       0.02819563 [kJ/mol]

  Total HF                         -1.79549831 [mEh]      -1.12669220 [kcal/mol]      -4.71408016 [kJ/mol]
  Total SAPT0                      -2.30352820 [mEh]      -1.44548577 [kcal/mol]      -6.04791246 [kJ/mol]
  Total SAPT2                      -2.15683889 [mEh]      -1.35343683 [kcal/mol]      -5.66277972 [kJ/mol]
  Total SAPT2+                     -2.18987303 [mEh]      -1.37416607 [kcal/mol]      -5.74951085 [kJ/mol]

  Special recipe for scaled SAPT0 (see Manual):
    Electrostatics sSAPT0          -1.75816388 [mEh]      -1.10326449 [kcal/mol]      -4.61605863 [kJ/mol]
    Exchange sSAPT0                 0.08417138 [mEh]       0.05281834 [kcal/mol]       0.22099194 [kJ/mol]
    Induction sSAPT0               -0.12149901 [mEh]      -0.07624178 [kcal/mol]      -0.31899561 [kJ/mol]
    Dispersion sSAPT0              -0.50802726 [mEh]      -0.31879192 [kcal/mol]      -1.33382538 [kJ/mol]
  Total sSAPT0                     -2.30351877 [mEh]      -1.44547985 [kcal/mol]      -6.04788769 [kJ/mol]
  --------------------------------------------------------------------------------------------------------

*** Psi4 exiting successfully. Buy a developer a beer!
