                               Psi4 1.4a2.dev224

  ==> Input File <==

--------------------------------------------------------------------------
#Generated by lconvert.py for sapt job

memory 50 GB

molecule  {
0 1
  C      -0.862230   -0.933550   -0.246020
  C      -3.193910    0.461080   -0.019760
  S      -2.332740   -0.567710   -1.229450
  H      -1.136270   -1.462460    0.664020
  H      -0.216530   -1.567910   -0.847800
  H      -0.331130   -0.015790   -0.003650
  H      -3.400560   -0.108030    0.883810
  H      -2.602360    1.342710    0.216650
  H      -4.133320    0.774680   -0.467680
--
0 1
  O      -4.618350   -4.824980    1.450800
  H      -4.443850   -4.395480    0.602760
  H      -5.112030   -5.611710    1.212940
units angstrom
no_reorient
symmetry c1
}

set {
scf_type DF
basis aug-cc-pvtz
freeze_core True
guess SAD
}
energy('sapt2+')
--------------------------------------------------------------------------

  //              Dimer HF             //
    Molecular point group: c1
  Charge       = 0
  Multiplicity = 1
  Basis Set: AUG-CC-PVTZ
    Blend: AUG-CC-PVTZ
  Basis Set: (AUG-CC-PVTZ AUX)
    Blend: AUG-CC-PVTZ-JKFIT
  @DF-RHF Final Energy:  -552.86452000674672
    Total Energy =                       -552.8645200067467158
  //            Monomer A HF           //
    Molecular point group: c1
  Multiplicity = 1
  Basis Set: AUG-CC-PVTZ
    Blend: AUG-CC-PVTZ
  Basis Set: (AUG-CC-PVTZ AUX)
    Blend: AUG-CC-PVTZ-JKFIT
  @DF-RHF Final Energy:  -476.80340527710212
    Total Energy =                       -476.8034052771021152
  //            Monomer B HF           //
    Molecular point group: c1

    Geometry (in Angstrom), charge = 0, multiplicity = 1:

       Center              X                  Y                   Z               Mass
    ------------   -----------------  -----------------  -----------------  -----------------
      Gh(C)           1.870130022246     0.467507568543    -0.033432895337    12.000000000000
      Gh(C)          -0.461549977754     1.862137568543     0.192827104663    12.000000000000
      Gh(S)           0.399620022246     0.833347568543    -1.016862895337    31.972071174400
      Gh(H)           1.596090022246    -0.061402431457     0.876607104663     1.007825032230
      Gh(H)           2.515830022246    -0.166852431457    -0.635212895337     1.007825032230
      Gh(H)           2.401230022246     1.385267568543     0.208937104663     1.007825032230
      Gh(H)          -0.668199977754     1.293027568543     1.096397104663     1.007825032230
      Gh(H)           0.130000022246     2.743767568543     0.429237104663     1.007825032230
      Gh(H)          -1.400959977754     2.175737568543    -0.255092895337     1.007825032230
         O           -1.885989977754    -3.423922431457     1.663387104663    15.994914619570
         H           -1.711489977754    -2.994422431457     0.815347104663     1.007825032230
         H           -2.379669977754    -4.210652431457     1.425527104663     1.007825032230

  Charge       = 0
  Multiplicity = 1
  Basis Set: AUG-CC-PVTZ
    Blend: AUG-CC-PVTZ
  Basis Set: (AUG-CC-PVTZ AUX)
    Blend: AUG-CC-PVTZ-JKFIT

    Orbital Energies [Eh]
    ---------------------

    Doubly Occupied:

       1A    -20.568437     2A     -1.351306     3A     -0.713690
       4A     -0.585146     5A     -0.510108

  @DF-RHF Final Energy:   -76.06012989136421

   => Energetics <=

    Nuclear Repulsion Energy =              9.1447676868804813
    One-Electron Energy =                -122.9524161493326346
    Two-Electron Energy =                  37.7475185710879373
    Total Energy =                        -76.0601298913642125

  Dipole Moment: [D]
     X:    -0.5388      Y:    -0.6041      Z:    -1.8266     Total:     1.9979

    SAPT Results
  --------------------------------------------------------------------------------------------------------
    Electrostatics                 -0.87245722 [mEh]      -0.54747517 [kcal/mol]      -2.29063613 [kJ/mol]
      Elst10,r                     -0.95748822 [mEh]      -0.60083293 [kcal/mol]      -2.51388496 [kJ/mol]
      Elst12,r                      0.08503099 [mEh]       0.05335775 [kcal/mol]       0.22324884 [kJ/mol]

    Exchange                        0.00880176 [mEh]       0.00552319 [kcal/mol]       0.02310902 [kJ/mol]
      Exch10                        0.00731462 [mEh]       0.00459000 [kcal/mol]       0.01920454 [kJ/mol]
      Exch10(S^2)                   0.00731456 [mEh]       0.00458995 [kcal/mol]       0.01920437 [kJ/mol]
      Exch11(S^2)                   0.00021020 [mEh]       0.00013190 [kcal/mol]       0.00055189 [kJ/mol]
      Exch12(S^2)                   0.00127693 [mEh]       0.00080129 [kcal/mol]       0.00335259 [kJ/mol]

    Induction                      -0.03448156 [mEh]      -0.02163751 [kcal/mol]      -0.09053133 [kJ/mol]
      Ind20,r                      -0.03552370 [mEh]      -0.02229146 [kcal/mol]      -0.09326745 [kJ/mol]
      Ind22                         0.00019702 [mEh]       0.00012363 [kcal/mol]       0.00051727 [kJ/mol]
      Exch-Ind20,r                  0.00250493 [mEh]       0.00157187 [kcal/mol]       0.00657669 [kJ/mol]
      Exch-Ind22                   -0.00001389 [mEh]      -0.00000872 [kcal/mol]      -0.00003648 [kJ/mol]
      delta HF,r (2)               -0.00164592 [mEh]      -0.00103283 [kcal/mol]      -0.00432136 [kJ/mol]

    Dispersion                     -0.19943620 [mEh]      -0.12514810 [kcal/mol]      -0.52361966 [kJ/mol]
      Disp20                       -0.19260121 [mEh]      -0.12085908 [kcal/mol]      -0.50567441 [kJ/mol]
      Disp21                        0.02323477 [mEh]       0.01458004 [kcal/mol]       0.06100289 [kJ/mol]
      Disp22 (SDQ)                  0.00462762 [mEh]       0.00290387 [kcal/mol]       0.01214980 [kJ/mol]
      Disp22 (T)                   -0.03414099 [mEh]      -0.02142379 [kcal/mol]      -0.08963715 [kJ/mol]
      Est. Disp22 (T)              -0.03575789 [mEh]      -0.02243841 [kcal/mol]      -0.09388232 [kJ/mol]
      Exch-Disp20                   0.00106051 [mEh]       0.00066548 [kcal/mol]       0.00278438 [kJ/mol]

  Total HF                         -0.98483828 [mEh]      -0.61799535 [kcal/mol]      -2.58569255 [kJ/mol]
  Total SAPT0                      -1.17637898 [mEh]      -0.73818895 [kcal/mol]      -3.08858258 [kJ/mol]
  Total SAPT2                      -1.08967772 [mEh]      -0.68378310 [kcal/mol]      -2.86094847 [kJ/mol]
  Total SAPT2+                     -1.09757322 [mEh]      -0.68873759 [kcal/mol]      -2.88167810 [kJ/mol]

  Special recipe for scaled SAPT0 (see Manual):
    Electrostatics sSAPT0          -0.95748822 [mEh]      -0.60083293 [kcal/mol]      -2.51388496 [kJ/mol]
    Exchange sSAPT0                 0.00731462 [mEh]       0.00459000 [kcal/mol]       0.01920454 [kJ/mol]
    Induction sSAPT0               -0.03466469 [mEh]      -0.02175242 [kcal/mol]      -0.09101213 [kJ/mol]
    Dispersion sSAPT0              -0.19154070 [mEh]      -0.12019360 [kcal/mol]      -0.50289003 [kJ/mol]
  Total sSAPT0                     -1.17637898 [mEh]      -0.73818895 [kcal/mol]      -3.08858258 [kJ/mol]
  --------------------------------------------------------------------------------------------------------

*** Psi4 exiting successfully. Buy a developer a beer!
