                               Psi4 1.4a2.dev224

  ==> Input File <==

--------------------------------------------------------------------------
#Generated by lconvert.py for sapt job

memory 50 GB

molecule  {
0 1
  C      -3.750530    0.043170    0.026790
  C      -2.716760   -0.864410    0.104800
  N      -1.573370   -0.118080    0.006370
  C      -1.950270    1.181320   -0.124300
  N      -3.267330    1.318930   -0.116180
  H      -0.623650   -0.467410    0.026910
  H      -4.806890   -0.157630    0.066140
  H      -2.696200   -1.932900    0.217230
  H      -1.235890    1.980320   -0.220910
--
0 1
  O       1.783460   -1.325510    0.076160
  H       2.367390   -1.385600    0.835070
  H       2.341580   -1.544810   -0.672790
units angstrom
no_reorient
symmetry c1
}

set {
scf_type DF
basis aug-cc-pvtz
freeze_core True
guess SAD
}
energy('sapt2+')
--------------------------------------------------------------------------

  //              Dimer HF             //
    Molecular point group: c1
  Charge       = 0
  Multiplicity = 1
  Basis Set: AUG-CC-PVTZ
    Blend: AUG-CC-PVTZ
  Basis Set: (AUG-CC-PVTZ AUX)
    Blend: AUG-CC-PVTZ-JKFIT
  @DF-RHF Final Energy:  -300.96340744832918
    Total Energy =                       -300.9634074483291784
  //            Monomer A HF           //
    Molecular point group: c1
  Multiplicity = 1
  Basis Set: AUG-CC-PVTZ
    Blend: AUG-CC-PVTZ
  Basis Set: (AUG-CC-PVTZ AUX)
    Blend: AUG-CC-PVTZ-JKFIT
  @DF-RHF Final Energy:  -224.89669617515847
    Total Energy =                       -224.8966961751584677
  //            Monomer B HF           //
    Molecular point group: c1

    Geometry (in Angstrom), charge = 0, multiplicity = 1:

       Center              X                  Y                   Z               Mass
    ------------   -----------------  -----------------  -----------------  -----------------
      Gh(C)          -2.065898592584     0.085011155756     0.026539043474    12.000000000000
      Gh(C)          -1.032128592584    -0.822568844244     0.104549043474    12.000000000000
      Gh(N)           0.111261407416    -0.076238844244     0.006119043474    14.003074004430
      Gh(C)          -0.265638592584     1.223161155756    -0.124550956526    12.000000000000
      Gh(N)          -1.582698592584     1.360771155756    -0.116430956526    14.003074004430
      Gh(H)           1.060981407416    -0.425568844244     0.026659043474     1.007825032230
      Gh(H)          -3.122258592584    -0.115788844244     0.065889043474     1.007825032230
      Gh(H)          -1.011568592584    -1.891058844244     0.216979043474     1.007825032230
      Gh(H)           0.448741407416     2.022161155756    -0.221160956526     1.007825032230
         O            3.468091407416    -1.283668844244     0.075909043474    15.994914619570
         H            4.052021407416    -1.343758844244     0.834819043474     1.007825032230
         H            4.026211407416    -1.502968844244    -0.673040956526     1.007825032230

  Charge       = 0
  Multiplicity = 1
  Basis Set: AUG-CC-PVTZ
    Blend: AUG-CC-PVTZ
  Basis Set: (AUG-CC-PVTZ AUX)
    Blend: AUG-CC-PVTZ-JKFIT

    Orbital Energies [Eh]
    ---------------------

    Doubly Occupied:

       1A    -20.567562     2A     -1.352487     3A     -0.716424
       4A     -0.584682     5A     -0.510165

  @DF-RHF Final Energy:   -76.06049046030762

   => Energetics <=

    Nuclear Repulsion Energy =              9.1737334018699990
    One-Electron Energy =                -123.0058072368277209
    Two-Electron Energy =                  37.7715833746500991
    Total Energy =                        -76.0604904603076193

  Dipole Moment: [D]
     X:     1.9279      Y:    -0.4719      Z:     0.0168     Total:     1.9849

    SAPT Results
  --------------------------------------------------------------------------------------------------------
    Electrostatics                 -6.09976816 [mEh]      -3.82766231 [kcal/mol]     -16.01493910 [kJ/mol]
      Elst10,r                     -6.48837296 [mEh]      -4.07151550 [kcal/mol]     -17.03522086 [kJ/mol]
      Elst12,r                      0.38860480 [mEh]       0.24385319 [kcal/mol]       1.02028176 [kJ/mol]

    Exchange                        1.30206370 [mEh]       0.81705731 [kcal/mol]       3.41856778 [kJ/mol]
      Exch10                        1.08037953 [mEh]       0.67794839 [kcal/mol]       2.83653606 [kJ/mol]
      Exch10(S^2)                   1.07939348 [mEh]       0.67732963 [kcal/mol]       2.83394719 [kJ/mol]
      Exch11(S^2)                  -0.01681421 [mEh]      -0.01055107 [kcal/mol]      -0.04414569 [kJ/mol]
      Exch12(S^2)                   0.23849838 [mEh]       0.14965999 [kcal/mol]       0.62617741 [kJ/mol]

    Induction                      -0.86691319 [mEh]      -0.54399624 [kcal/mol]      -2.27608025 [kJ/mol]
      Ind20,r                      -0.80338911 [mEh]      -0.50413428 [kcal/mol]      -2.10929781 [kJ/mol]
      Ind22                        -0.06806863 [mEh]      -0.04271371 [kcal/mol]      -0.17871417 [kJ/mol]
      Exch-Ind20,r                  0.16494037 [mEh]       0.10350164 [kcal/mol]       0.43305087 [kJ/mol]
      Exch-Ind22                    0.01397488 [mEh]       0.00876937 [kcal/mol]       0.03669104 [kJ/mol]
      delta HF,r (2)               -0.17437069 [mEh]      -0.10941926 [kcal/mol]      -0.45781018 [kJ/mol]

    Dispersion                     -1.38784202 [mEh]      -0.87088402 [kcal/mol]      -3.64377872 [kJ/mol]
      Disp20                       -1.30320831 [mEh]      -0.81777556 [kcal/mol]      -3.42157295 [kJ/mol]
      Disp21                        0.07737192 [mEh]       0.04855161 [kcal/mol]       0.20313994 [kJ/mol]
      Disp22 (SDQ)                 -0.00306827 [mEh]      -0.00192537 [kcal/mol]      -0.00805573 [kJ/mol]
      Disp22 (T)                   -0.22397479 [mEh]      -0.14054630 [kcal/mol]      -0.58804572 [kJ/mol]
      Est. Disp22 (T)              -0.25055124 [mEh]      -0.15722328 [kcal/mol]      -0.65782219 [kJ/mol]
      Exch-Disp20                   0.09161388 [mEh]       0.05748858 [kcal/mol]       0.24053221 [kJ/mol]

  Total HF                         -6.22081286 [mEh]      -3.90361901 [kcal/mol]     -16.33274192 [kJ/mol]
  Total SAPT0                      -7.43240729 [mEh]      -4.66390599 [kcal/mol]     -19.51378266 [kJ/mol]
  Total SAPT2                      -6.87621207 [mEh]      -4.31488822 [kcal/mol]     -18.05349231 [kJ/mol]
  Total SAPT2+                     -7.05245966 [mEh]      -4.42548525 [kcal/mol]     -18.51623029 [kJ/mol]

  Special recipe for scaled SAPT0 (see Manual):
    Electrostatics sSAPT0          -6.48837296 [mEh]      -4.07151550 [kcal/mol]     -17.03522086 [kJ/mol]
    Exchange sSAPT0                 1.08037953 [mEh]       0.67794839 [kcal/mol]       2.83653606 [kJ/mol]
    Induction sSAPT0               -0.81236699 [mEh]      -0.50976798 [kcal/mol]      -2.13286923 [kJ/mol]
    Dispersion sSAPT0              -1.21134313 [mEh]      -0.76012929 [kcal/mol]      -3.18038094 [kJ/mol]
  Total sSAPT0                     -7.43170355 [mEh]      -4.66346438 [kcal/mol]     -19.51193498 [kJ/mol]
  --------------------------------------------------------------------------------------------------------

*** Psi4 exiting successfully. Buy a developer a beer!
