                               Psi4 1.4a2.dev224

  ==> Input File <==

--------------------------------------------------------------------------
#Generated by lconvert.py for sapt job

memory 50 GB

molecule  {
0 1
  C      -3.750530    0.043170    0.026790
  C      -2.716760   -0.864410    0.104800
  N      -1.573370   -0.118080    0.006370
  C      -1.950270    1.181320   -0.124300
  N      -3.267330    1.318930   -0.116180
  H      -0.623650   -0.467410    0.026910
  H      -4.806890   -0.157630    0.066140
  H      -2.696200   -1.932900    0.217230
  H      -1.235890    1.980320   -0.220910
--
0 1
  O       2.894430   -1.721570    0.098900
  H       3.478360   -1.781650    0.857800
  H       3.452560   -1.940860   -0.650050
units angstrom
no_reorient
symmetry c1
}

set {
scf_type DF
basis aug-cc-pvtz
freeze_core True
guess SAD
}
energy('sapt2+')
--------------------------------------------------------------------------

  //              Dimer HF             //
    Molecular point group: c1
  Charge       = 0
  Multiplicity = 1
  Basis Set: AUG-CC-PVTZ
    Blend: AUG-CC-PVTZ
  Basis Set: (AUG-CC-PVTZ AUX)
    Blend: AUG-CC-PVTZ-JKFIT
  @DF-RHF Final Energy:  -300.95978481654021
    Total Energy =                       -300.9597848165402070
  //            Monomer A HF           //
    Molecular point group: c1
  Multiplicity = 1
  Basis Set: AUG-CC-PVTZ
    Blend: AUG-CC-PVTZ
  Basis Set: (AUG-CC-PVTZ AUX)
    Blend: AUG-CC-PVTZ-JKFIT
  @DF-RHF Final Energy:  -224.89665272479883
    Total Energy =                       -224.8966527247988267
  //            Monomer B HF           //
    Molecular point group: c1

    Geometry (in Angstrom), charge = 0, multiplicity = 1:

       Center              X                  Y                   Z               Mass
    ------------   -----------------  -----------------  -----------------  -----------------
      Gh(C)          -2.298433969859     0.167909573260     0.021779489485    12.000000000000
      Gh(C)          -1.264663969859    -0.739670426740     0.099789489485    12.000000000000
      Gh(N)          -0.121273969859     0.006659573260     0.001359489485    14.003074004430
      Gh(C)          -0.498173969859     1.306059573260    -0.129310510515    12.000000000000
      Gh(N)          -1.815233969859     1.443669573260    -0.121190510515    14.003074004430
      Gh(H)           0.828446030141    -0.342670426740     0.021899489485     1.007825032230
      Gh(H)          -3.354793969859    -0.032890426740     0.061129489485     1.007825032230
      Gh(H)          -1.244103969859    -1.808160426740     0.212219489485     1.007825032230
      Gh(H)           0.216206030141     2.105059573260    -0.225920510515     1.007825032230
         O            4.346526030141    -1.596830426740     0.093889489485    15.994914619570
         H            4.930456030141    -1.656910426740     0.852789489485     1.007825032230
         H            4.904656030141    -1.816120426740    -0.655060510515     1.007825032230

  Charge       = 0
  Multiplicity = 1
  Basis Set: AUG-CC-PVTZ
    Blend: AUG-CC-PVTZ
  Basis Set: (AUG-CC-PVTZ AUX)
    Blend: AUG-CC-PVTZ-JKFIT

    Orbital Energies [Eh]
    ---------------------

    Doubly Occupied:

       1A    -20.567641     2A     -1.352544     3A     -0.716476
       4A     -0.584706     5A     -0.510213

  @DF-RHF Final Energy:   -76.06045339498417

   => Energetics <=

    Nuclear Repulsion Energy =              9.1737587448856743
    One-Electron Energy =                -123.0052617866437146
    Two-Electron Energy =                  37.7710496467738750
    Total Energy =                        -76.0604533949841652

  Dipole Moment: [D]
     X:     1.9299      Y:    -0.4722      Z:     0.0168     Total:     1.9869

    SAPT Results
  --------------------------------------------------------------------------------------------------------
    Electrostatics                 -2.38515039 [mEh]      -1.49670447 [kcal/mol]      -6.26221149 [kJ/mol]
      Elst10,r                     -2.58283222 [mEh]      -1.62075168 [kcal/mol]      -6.78122505 [kJ/mol]
      Elst12,r                      0.19768183 [mEh]       0.12404722 [kcal/mol]       0.51901356 [kJ/mol]

    Exchange                        0.01570221 [mEh]       0.00985329 [kcal/mol]       0.04122615 [kJ/mol]
      Exch10                        0.01137267 [mEh]       0.00713646 [kcal/mol]       0.02985894 [kJ/mol]
      Exch10(S^2)                   0.01137251 [mEh]       0.00713636 [kcal/mol]       0.02985851 [kJ/mol]
      Exch11(S^2)                  -0.00052997 [mEh]      -0.00033256 [kcal/mol]      -0.00139142 [kJ/mol]
      Exch12(S^2)                   0.00485951 [mEh]       0.00304939 [kcal/mol]       0.01275863 [kJ/mol]

    Induction                      -0.10902200 [mEh]      -0.06841234 [kcal/mol]      -0.28623722 [kJ/mol]
      Ind20,r                      -0.10314695 [mEh]      -0.06472569 [kcal/mol]      -0.27081228 [kJ/mol]
      Ind22                        -0.00180727 [mEh]      -0.00113408 [kcal/mol]      -0.00474499 [kJ/mol]
      Exch-Ind20,r                  0.00128310 [mEh]       0.00080516 [kcal/mol]       0.00336878 [kJ/mol]
      Exch-Ind22                    0.00002248 [mEh]       0.00001411 [kcal/mol]       0.00005903 [kJ/mol]
      delta HF,r (2)               -0.00537336 [mEh]      -0.00337183 [kcal/mol]      -0.01410775 [kJ/mol]

    Dispersion                     -0.22156898 [mEh]      -0.13903663 [kcal/mol]      -0.58172927 [kJ/mol]
      Disp20                       -0.20329590 [mEh]      -0.12757011 [kcal/mol]      -0.53375332 [kJ/mol]
      Disp21                        0.02439479 [mEh]       0.01530796 [kcal/mol]       0.06404850 [kJ/mol]
      Disp22 (SDQ)                 -0.00165556 [mEh]      -0.00103888 [kcal/mol]      -0.00434667 [kJ/mol]
      Disp22 (T)                   -0.04034393 [mEh]      -0.02531620 [kcal/mol]      -0.10592297 [kJ/mol]
      Est. Disp22 (T)              -0.04240250 [mEh]      -0.02660797 [kcal/mol]      -0.11132775 [kJ/mol]
      Exch-Disp20                   0.00139020 [mEh]       0.00087236 [kcal/mol]       0.00364997 [kJ/mol]

  Total HF                         -2.67869676 [mEh]      -1.68090759 [kcal/mol]      -7.03291737 [kJ/mol]
  Total SAPT0                      -2.88060246 [mEh]      -1.80760534 [kcal/mol]      -7.56302072 [kJ/mol]
  Total SAPT2                      -2.68037588 [mEh]      -1.68196126 [kcal/mol]      -7.03732591 [kJ/mol]
  Total SAPT2+                     -2.70003916 [mEh]      -1.69430015 [kcal/mol]      -7.08895183 [kJ/mol]

  Special recipe for scaled SAPT0 (see Manual):
    Electrostatics sSAPT0          -2.58283222 [mEh]      -1.62075168 [kcal/mol]      -6.78122505 [kJ/mol]
    Exchange sSAPT0                 0.01137267 [mEh]       0.00713646 [kcal/mol]       0.02985894 [kJ/mol]
    Induction sSAPT0               -0.10723716 [mEh]      -0.06729233 [kcal/mol]      -0.28155112 [kJ/mol]
    Dispersion sSAPT0              -0.20190564 [mEh]      -0.12669770 [kcal/mol]      -0.53010320 [kJ/mol]
  Total sSAPT0                     -2.88060235 [mEh]      -1.80760526 [kcal/mol]      -7.56302042 [kJ/mol]
  --------------------------------------------------------------------------------------------------------

*** Psi4 exiting successfully. Buy a developer a beer!
