                               Psi4 1.4a2.dev224

  ==> Input File <==

--------------------------------------------------------------------------
#Generated by lconvert.py for sapt job

memory 50 GB

molecule  {
0 1
  C      -3.750530    0.043170    0.026790
  C      -2.716760   -0.864410    0.104800
  N      -1.573370   -0.118080    0.006370
  C      -1.950270    1.181320   -0.124300
  N      -3.267330    1.318930   -0.116180
  H      -0.623650   -0.467410    0.026910
  H      -4.806890   -0.157630    0.066140
  H      -2.696200   -1.932900    0.217230
  H      -1.235890    1.980320   -0.220910
--
0 1
  O       2.338940   -1.523540    0.087530
  H       2.922870   -1.583620    0.846430
  H       2.897070   -1.742840   -0.661420
units angstrom
no_reorient
symmetry c1
}

set {
scf_type DF
basis aug-cc-pvtz
freeze_core True
guess SAD
}
energy('sapt2+')
--------------------------------------------------------------------------

  //              Dimer HF             //
    Molecular point group: c1
  Charge       = 0
  Multiplicity = 1
  Basis Set: AUG-CC-PVTZ
    Blend: AUG-CC-PVTZ
  Basis Set: (AUG-CC-PVTZ AUX)
    Blend: AUG-CC-PVTZ-JKFIT
  @DF-RHF Final Energy:  -300.96116076377240
    Total Energy =                       -300.9611607637723978
  //            Monomer A HF           //
    Molecular point group: c1
  Multiplicity = 1
  Basis Set: AUG-CC-PVTZ
    Blend: AUG-CC-PVTZ
  Basis Set: (AUG-CC-PVTZ AUX)
    Blend: AUG-CC-PVTZ-JKFIT
  @DF-RHF Final Energy:  -224.89666220158119
    Total Energy =                       -224.8966622015811936
  //            Monomer B HF           //
    Molecular point group: c1

    Geometry (in Angstrom), charge = 0, multiplicity = 1:

       Center              X                  Y                   Z               Mass
    ------------   -----------------  -----------------  -----------------  -----------------
      Gh(C)          -2.182165293242     0.126460364508     0.024159325041    12.000000000000
      Gh(C)          -1.148395293242    -0.781119635492     0.102169325041    12.000000000000
      Gh(N)          -0.005005293242    -0.034789635492     0.003739325041    14.003074004430
      Gh(C)          -0.381905293242     1.264610364508    -0.126930674959    12.000000000000
      Gh(N)          -1.698965293242     1.402220364508    -0.118810674959    14.003074004430
      Gh(H)           0.944714706758    -0.384119635492     0.024279325041     1.007825032230
      Gh(H)          -3.238525293242    -0.074339635492     0.063509325041     1.007825032230
      Gh(H)          -1.127835293242    -1.849609635492     0.214599325041     1.007825032230
      Gh(H)           0.332474706758     2.063610364508    -0.223540674959     1.007825032230
         O            3.907304706758    -1.440249635492     0.084899325041    15.994914619570
         H            4.491234706758    -1.500329635492     0.843799325041     1.007825032230
         H            4.465434706758    -1.659549635492    -0.664050674959     1.007825032230

  Charge       = 0
  Multiplicity = 1
  Basis Set: AUG-CC-PVTZ
    Blend: AUG-CC-PVTZ
  Basis Set: (AUG-CC-PVTZ AUX)
    Blend: AUG-CC-PVTZ-JKFIT

    Orbital Energies [Eh]
    ---------------------

    Doubly Occupied:

       1A    -20.567625     2A     -1.352531     3A     -0.716463
       4A     -0.584703     5A     -0.510197

  @DF-RHF Final Energy:   -76.06046052248840

   => Energetics <=

    Nuclear Repulsion Energy =              9.1737479917500551
    One-Electron Energy =                -123.0053760749753451
    Two-Electron Energy =                  37.7711675607368846
    Total Energy =                        -76.0604605224884125

  Dipole Moment: [D]
     X:     1.9293      Y:    -0.4721      Z:     0.0168     Total:     1.9863

    SAPT Results
  --------------------------------------------------------------------------------------------------------
    Electrostatics                 -3.61025235 [mEh]      -2.26546755 [kcal/mol]      -9.47871623 [kJ/mol]
      Elst10,r                     -3.89107292 [mEh]      -2.44168512 [kcal/mol]     -10.21601054 [kJ/mol]
      Elst12,r                      0.28082057 [mEh]       0.17621757 [kcal/mol]       0.73729431 [kJ/mol]

    Exchange                        0.14491819 [mEh]       0.09093753 [kcal/mol]       0.38048264 [kJ/mol]
      Exch10                        0.11251020 [mEh]       0.07060122 [kcal/mol]       0.29539549 [kJ/mol]
      Exch10(S^2)                   0.11249707 [mEh]       0.07059298 [kcal/mol]       0.29536101 [kJ/mol]
      Exch11(S^2)                  -0.00353113 [mEh]      -0.00221581 [kcal/mol]      -0.00927097 [kJ/mol]
      Exch12(S^2)                   0.03593911 [mEh]       0.02255213 [kcal/mol]       0.09435812 [kJ/mol]

    Induction                      -0.26906714 [mEh]      -0.16884218 [kcal/mol]      -0.70643569 [kJ/mol]
      Ind20,r                      -0.24792987 [mEh]      -0.15557834 [kcal/mol]      -0.65093979 [kJ/mol]
      Ind22                        -0.01015855 [mEh]      -0.00637459 [kcal/mol]      -0.02667128 [kJ/mol]
      Exch-Ind20,r                  0.01387224 [mEh]       0.00870496 [kcal/mol]       0.03642156 [kJ/mol]
      Exch-Ind22                    0.00056839 [mEh]       0.00035667 [kcal/mol]       0.00149232 [kJ/mol]
      delta HF,r (2)               -0.02541935 [mEh]      -0.01595088 [kcal/mol]      -0.06673849 [kJ/mol]

    Dispersion                     -0.51744405 [mEh]      -0.32470104 [kcal/mol]      -1.35854916 [kJ/mol]
      Disp20                       -0.47169210 [mEh]      -0.29599126 [kcal/mol]      -1.23842744 [kJ/mol]
      Disp21                        0.04153355 [mEh]       0.02606269 [kcal/mol]       0.10904631 [kJ/mol]
      Disp22 (SDQ)                 -0.00301111 [mEh]      -0.00188950 [kcal/mol]      -0.00790568 [kJ/mol]
      Disp22 (T)                   -0.08848566 [mEh]      -0.05552559 [kcal/mol]      -0.23231906 [kJ/mol]
      Est. Disp22 (T)              -0.09587054 [mEh]      -0.06015967 [kcal/mol]      -0.25170807 [kJ/mol]
      Exch-Disp20                   0.01159616 [mEh]       0.00727670 [kcal/mol]       0.03044571 [kJ/mol]

  Total HF                         -4.03803970 [mEh]      -2.53390817 [kcal/mol]     -10.60187178 [kJ/mol]
  Total SAPT0                      -4.49813564 [mEh]      -2.82262273 [kcal/mol]     -11.80985351 [kJ/mol]
  Total SAPT2                      -4.19449725 [mEh]      -2.63208676 [kcal/mol]     -11.01265100 [kJ/mol]
  Total SAPT2+                     -4.25184535 [mEh]      -2.66807324 [kcal/mol]     -11.16321844 [kJ/mol]

  Special recipe for scaled SAPT0 (see Manual):
    Electrostatics sSAPT0          -3.89107292 [mEh]      -2.44168512 [kcal/mol]     -10.21601054 [kJ/mol]
    Exchange sSAPT0                 0.11251020 [mEh]       0.07060122 [kcal/mol]       0.29539549 [kJ/mol]
    Induction sSAPT0               -0.25947213 [mEh]      -0.16282122 [kcal/mol]      -0.68124397 [kJ/mol]
    Dispersion sSAPT0              -0.46009188 [mEh]      -0.28871201 [kcal/mol]      -1.20797106 [kJ/mol]
  Total sSAPT0                     -4.49812672 [mEh]      -2.82261713 [kcal/mol]     -11.80983009 [kJ/mol]
  --------------------------------------------------------------------------------------------------------

*** Psi4 exiting successfully. Buy a developer a beer!
