                               Psi4 1.4a2.dev224

  ==> Input File <==

--------------------------------------------------------------------------
#Generated by lconvert.py for sapt job

memory 50 GB

molecule  {
0 1
  N      -2.266530    1.755160    0.352360
  C      -3.256290    0.724730    0.014240
  C      -2.422570   -0.289460   -0.775650
  C      -0.987250   -0.118690   -0.221530
  C      -1.119260    0.978990    0.839250
  H      -4.073720    1.148830   -0.565260
  H      -3.672930    0.252960    0.912840
  H      -2.802790   -1.300340   -0.649960
  H      -2.444770   -0.045290   -1.834260
  H      -0.590360   -1.037110    0.204170
  H      -0.318530    0.207680   -1.013410
  H      -1.319500    0.532970    1.821400
  H      -0.233290    1.605750    0.917350
  H      -2.617720    2.379590    1.069600
--
0 1
  O      -0.988730    2.952380   -3.326360
  H      -1.328800    2.860460   -2.417200
  H      -1.034040    3.893840   -3.499330
units angstrom
no_reorient
symmetry c1
}

set {
scf_type DF
basis aug-cc-pvtz
freeze_core True
guess SAD
}
energy('sapt2+')
--------------------------------------------------------------------------

  //              Dimer HF             //
    Molecular point group: c1
  Charge       = 0
  Multiplicity = 1
  Basis Set: AUG-CC-PVTZ
    Blend: AUG-CC-PVTZ
  Basis Set: (AUG-CC-PVTZ AUX)
    Blend: AUG-CC-PVTZ-JKFIT
  @DF-RHF Final Energy:  -287.28625787828116
    Total Energy =                       -287.2862578782811624
  //            Monomer A HF           //
    Molecular point group: c1
  Multiplicity = 1
  Basis Set: AUG-CC-PVTZ
    Blend: AUG-CC-PVTZ
  Basis Set: (AUG-CC-PVTZ AUX)
    Blend: AUG-CC-PVTZ-JKFIT
  @DF-RHF Final Energy:  -211.22284563420439
    Total Energy =                       -211.2228456342043614
  //            Monomer B HF           //
    Molecular point group: c1

    Geometry (in Angstrom), charge = 0, multiplicity = 1:

       Center              X                  Y                   Z               Mass
    ------------   -----------------  -----------------  -----------------  -----------------
      Gh(N)          -0.452806670383     0.655872038781     0.970749044683    14.003074004430
      Gh(C)          -1.442566670383    -0.374557961219     0.632629044683    12.000000000000
      Gh(C)          -0.608846670383    -1.388747961219    -0.157260955317    12.000000000000
      Gh(C)           0.826473329617    -1.217977961219     0.396859044683    12.000000000000
      Gh(C)           0.694463329617    -0.120297961219     1.457639044683    12.000000000000
      Gh(H)          -2.259996670383     0.049542038781     0.053129044683     1.007825032230
      Gh(H)          -1.859206670383    -0.846327961219     1.531229044683     1.007825032230
      Gh(H)          -0.989066670383    -2.399627961219    -0.031570955317     1.007825032230
      Gh(H)          -0.631046670383    -1.144577961219    -1.215870955317     1.007825032230
      Gh(H)           1.223363329617    -2.136397961219     0.822559044683     1.007825032230
      Gh(H)           1.495193329617    -0.891607961219    -0.395020955317     1.007825032230
      Gh(H)           0.494223329617    -0.566317961219     2.439789044683     1.007825032230
      Gh(H)           1.580433329617     0.506462038781     1.535739044683     1.007825032230
      Gh(H)          -0.803996670383     1.280302038781     1.687989044683     1.007825032230
         O            0.824993329617     1.853092038781    -2.707970955317    15.994914619570
         H            0.484923329617     1.761172038781    -1.798810955317     1.007825032230
         H            0.779683329617     2.794552038781    -2.880940955317     1.007825032230

  Charge       = 0
  Multiplicity = 1
  Basis Set: AUG-CC-PVTZ
    Blend: AUG-CC-PVTZ
  Basis Set: (AUG-CC-PVTZ AUX)
    Blend: AUG-CC-PVTZ-JKFIT

    Orbital Energies [Eh]
    ---------------------

    Doubly Occupied:

       1A    -20.568984     2A     -1.349087     3A     -0.712012
       4A     -0.583794     5A     -0.509698

  @DF-RHF Final Energy:   -76.05971109774389

   => Energetics <=

    Nuclear Repulsion Energy =              9.1065398999055382
    One-Electron Energy =                -122.8853484250484769
    Two-Electron Energy =                  37.7190974273990420
    Total Energy =                        -76.0597110977439002

  Dipole Moment: [D]
     X:    -0.6464      Y:     1.4329      Z:     1.2324     Total:     1.9975

    SAPT Results
  --------------------------------------------------------------------------------------------------------
    Electrostatics                 -3.82947152 [mEh]      -2.40302966 [kcal/mol]     -10.05427609 [kJ/mol]
      Elst10,r                     -3.79464819 [mEh]      -2.38117769 [kcal/mol]      -9.96284744 [kJ/mol]
      Elst12,r                     -0.03482333 [mEh]      -0.02185197 [kcal/mol]      -0.09142865 [kJ/mol]

    Exchange                        0.67296409 [mEh]       0.42229134 [kcal/mol]       1.76686696 [kJ/mol]
      Exch10                        0.52061732 [mEh]       0.32669230 [kcal/mol]       1.36688059 [kJ/mol]
      Exch10(S^2)                   0.52041026 [mEh]       0.32656237 [kcal/mol]       1.36633695 [kJ/mol]
      Exch11(S^2)                   0.00865936 [mEh]       0.00543383 [kcal/mol]       0.02273515 [kJ/mol]
      Exch12(S^2)                   0.14368740 [mEh]       0.09016521 [kcal/mol]       0.37725122 [kJ/mol]

    Induction                      -0.47693262 [mEh]      -0.29927974 [kcal/mol]      -1.25218643 [kJ/mol]
      Ind20,r                      -0.49059246 [mEh]      -0.30785142 [kcal/mol]      -1.28805033 [kJ/mol]
      Ind22                        -0.07040172 [mEh]      -0.04417775 [kcal/mol]      -0.18483970 [kJ/mol]
      Exch-Ind20,r                  0.14344300 [mEh]       0.09001184 [kcal/mol]       0.37660956 [kJ/mol]
      Exch-Ind22                    0.02058457 [mEh]       0.01291701 [kcal/mol]       0.05404478 [kJ/mol]
      delta HF,r (2)               -0.07996601 [mEh]      -0.05017943 [kcal/mol]      -0.20995073 [kJ/mol]

    Dispersion                     -1.39629810 [mEh]      -0.87619029 [kcal/mol]      -3.66598015 [kJ/mol]
      Disp20                       -1.30714877 [mEh]      -0.82024824 [kcal/mol]      -3.43191862 [kJ/mol]
      Disp21                        0.11757398 [mEh]       0.07377879 [kcal/mol]       0.30869045 [kJ/mol]
      Disp22 (SDQ)                 -0.02253526 [mEh]      -0.01414109 [kcal/mol]      -0.05916633 [kJ/mol]
      Disp22 (T)                   -0.22206165 [mEh]      -0.13934579 [kcal/mol]      -0.58302278 [kJ/mol]
      Est. Disp22 (T)              -0.24470174 [mEh]      -0.15355266 [kcal/mol]      -0.64246434 [kJ/mol]
      Exch-Disp20                   0.06051370 [mEh]       0.03797292 [kcal/mol]       0.15887869 [kJ/mol]

  Total HF                         -3.70114633 [mEh]      -2.32250439 [kcal/mol]      -9.71735836 [kJ/mol]
  Total SAPT0                      -4.94778140 [mEh]      -3.10477971 [kcal/mol]     -12.99039829 [kJ/mol]
  Total SAPT2                      -4.88007513 [mEh]      -3.06229338 [kcal/mol]     -12.81263549 [kJ/mol]
  Total SAPT2+                     -5.02973816 [mEh]      -3.15620834 [kcal/mol]     -13.20557571 [kJ/mol]

  Special recipe for scaled SAPT0 (see Manual):
    Electrostatics sSAPT0          -3.79464819 [mEh]      -2.38117769 [kcal/mol]      -9.96284744 [kJ/mol]
    Exchange sSAPT0                 0.52061732 [mEh]       0.32669230 [kcal/mol]       1.36688059 [kJ/mol]
    Induction sSAPT0               -0.42694418 [mEh]      -0.26791152 [kcal/mol]      -1.12094179 [kJ/mol]
    Dispersion sSAPT0              -1.24656281 [mEh]      -0.78222997 [kcal/mol]      -3.27285021 [kJ/mol]
  Total sSAPT0                     -4.94753785 [mEh]      -3.10462688 [kcal/mol]     -12.98975885 [kJ/mol]
  --------------------------------------------------------------------------------------------------------

*** Psi4 exiting successfully. Buy a developer a beer!
