                               Psi4 1.4a2.dev224

  ==> Input File <==

--------------------------------------------------------------------------
#Generated by lconvert.py for sapt job

memory 50 GB

molecule  {
0 1
  N      -2.266530    1.755160    0.352360
  C      -3.256290    0.724730    0.014240
  C      -2.422570   -0.289460   -0.775650
  C      -0.987250   -0.118690   -0.221530
  C      -1.119260    0.978990    0.839250
  H      -4.073720    1.148830   -0.565260
  H      -3.672930    0.252960    0.912840
  H      -2.802790   -1.300340   -0.649960
  H      -2.444770   -0.045290   -1.834260
  H      -0.590360   -1.037110    0.204170
  H      -0.318530    0.207680   -1.013410
  H      -1.319500    0.532970    1.821400
  H      -0.233290    1.605750    0.917350
  H      -2.617720    2.379590    1.069600
--
0 1
  O      -0.812910    3.159630   -3.845650
  H      -1.152980    3.067700   -2.936490
  H      -0.858210    4.101080   -4.018620
units angstrom
no_reorient
symmetry c1
}

set {
scf_type DF
basis aug-cc-pvtz
freeze_core True
guess SAD
}
energy('sapt2+')
--------------------------------------------------------------------------

  //              Dimer HF             //
    Molecular point group: c1
  Charge       = 0
  Multiplicity = 1
  Basis Set: AUG-CC-PVTZ
    Blend: AUG-CC-PVTZ
  Basis Set: (AUG-CC-PVTZ AUX)
    Blend: AUG-CC-PVTZ-JKFIT
  @DF-RHF Final Energy:  -287.28465906966301
    Total Energy =                       -287.2846590696630074
  //            Monomer A HF           //
    Molecular point group: c1
  Multiplicity = 1
  Basis Set: AUG-CC-PVTZ
    Blend: AUG-CC-PVTZ
  Basis Set: (AUG-CC-PVTZ AUX)
    Blend: AUG-CC-PVTZ-JKFIT
  @DF-RHF Final Energy:  -211.22283084155146
    Total Energy =                       -211.2228308415514562
  //            Monomer B HF           //
    Molecular point group: c1

    Geometry (in Angstrom), charge = 0, multiplicity = 1:

       Center              X                  Y                   Z               Mass
    ------------   -----------------  -----------------  -----------------  -----------------
      Gh(N)          -0.488353180270     0.613971510139     1.075736465744    14.003074004430
      Gh(C)          -1.478113180270    -0.416458489861     0.737616465744    12.000000000000
      Gh(C)          -0.644393180270    -1.430648489861    -0.052273534256    12.000000000000
      Gh(C)           0.790926819730    -1.259878489861     0.501846465744    12.000000000000
      Gh(C)           0.658916819730    -0.162198489861     1.562626465744    12.000000000000
      Gh(H)          -2.295543180270     0.007641510139     0.158116465744     1.007825032230
      Gh(H)          -1.894753180270    -0.888228489861     1.636216465744     1.007825032230
      Gh(H)          -1.024613180270    -2.441528489861     0.073416465744     1.007825032230
      Gh(H)          -0.666593180270    -1.186478489861    -1.110883534256     1.007825032230
      Gh(H)           1.187816819730    -2.178298489861     0.927546465744     1.007825032230
      Gh(H)           1.459646819730    -0.933508489861    -0.290033534256     1.007825032230
      Gh(H)           0.458676819730    -0.608218489861     2.544776465744     1.007825032230
      Gh(H)           1.544886819730     0.464561510139     1.640726465744     1.007825032230
      Gh(H)          -0.839543180270     1.238401510139     1.792976465744     1.007825032230
         O            0.965266819730     2.018441510139    -3.122273534256    15.994914619570
         H            0.625196819730     1.926511510139    -2.213113534256     1.007825032230
         H            0.919966819730     2.959891510139    -3.295243534256     1.007825032230

  Charge       = 0
  Multiplicity = 1
  Basis Set: AUG-CC-PVTZ
    Blend: AUG-CC-PVTZ
  Basis Set: (AUG-CC-PVTZ AUX)
    Blend: AUG-CC-PVTZ-JKFIT

    Orbital Energies [Eh]
    ---------------------

    Doubly Occupied:

       1A    -20.569008     2A     -1.349111     3A     -0.712036
       4A     -0.583817     5A     -0.509706

  @DF-RHF Final Energy:   -76.05969118259779

   => Energetics <=

    Nuclear Repulsion Energy =              9.1065827318099348
    One-Electron Energy =                -122.8851883447774185
    Two-Electron Energy =                  37.7189144303696935
    Total Energy =                        -76.0596911825977884

  Dipole Moment: [D]
     X:    -0.6464      Y:     1.4332      Z:     1.2322     Total:     1.9975

    SAPT Results
  --------------------------------------------------------------------------------------------------------
    Electrostatics                 -2.06685688 [mEh]      -1.29697227 [kcal/mol]      -5.42653199 [kJ/mol]
      Elst10,r                     -2.07792196 [mEh]      -1.30391572 [kcal/mol]      -5.45558336 [kJ/mol]
      Elst12,r                      0.01106508 [mEh]       0.00694344 [kcal/mol]       0.02905137 [kJ/mol]

    Exchange                        0.11055234 [mEh]       0.06937264 [kcal/mol]       0.29025513 [kJ/mol]
      Exch10                        0.08043033 [mEh]       0.05047079 [kcal/mol]       0.21116980 [kJ/mol]
      Exch10(S^2)                   0.08042438 [mEh]       0.05046706 [kcal/mol]       0.21115417 [kJ/mol]
      Exch11(S^2)                   0.00115167 [mEh]       0.00072269 [kcal/mol]       0.00302372 [kJ/mol]
      Exch12(S^2)                   0.02897034 [mEh]       0.01817916 [kcal/mol]       0.07606161 [kJ/mol]

    Induction                      -0.15291734 [mEh]      -0.09595708 [kcal/mol]      -0.40148442 [kJ/mol]
      Ind20,r                      -0.14630899 [mEh]      -0.09181027 [kcal/mol]      -0.38413419 [kJ/mol]
      Ind22                        -0.01565718 [mEh]      -0.00982503 [kcal/mol]      -0.04110791 [kJ/mol]
      Exch-Ind20,r                  0.02143372 [mEh]       0.01344986 [kcal/mol]       0.05627422 [kJ/mol]
      Exch-Ind22                    0.00229372 [mEh]       0.00143933 [kcal/mol]       0.00602215 [kJ/mol]
      delta HF,r (2)               -0.01467861 [mEh]      -0.00921097 [kcal/mol]      -0.03853869 [kJ/mol]

    Dispersion                     -0.61525329 [mEh]      -0.38607727 [kcal/mol]      -1.61534730 [kJ/mol]
      Disp20                       -0.57180424 [mEh]      -0.35881258 [kcal/mol]      -1.50127183 [kJ/mol]
      Disp21                        0.06070114 [mEh]       0.03809054 [kcal/mol]       0.15937081 [kJ/mol]
      Disp22 (SDQ)                 -0.00679460 [mEh]      -0.00426368 [kcal/mol]      -0.01783922 [kJ/mol]
      Disp22 (T)                   -0.10051077 [mEh]      -0.06307146 [kcal/mol]      -0.26389098 [kJ/mol]
      Est. Disp22 (T)              -0.10791640 [mEh]      -0.06771856 [kcal/mol]      -0.28333447 [kJ/mol]
      Exch-Disp20                   0.01056082 [mEh]       0.00662701 [kcal/mol]       0.02772742 [kJ/mol]

  Total HF                         -2.13704551 [mEh]      -1.34101631 [kcal/mol]      -5.61081222 [kJ/mol]
  Total SAPT0                      -2.69828894 [mEh]      -1.69320187 [kcal/mol]      -7.08435664 [kJ/mol]
  Total SAPT2                      -2.67046530 [mEh]      -1.67574228 [kcal/mol]      -7.01130569 [kJ/mol]
  Total SAPT2+                     -2.72447517 [mEh]      -1.70963398 [kcal/mol]      -7.15310857 [kJ/mol]

  Special recipe for scaled SAPT0 (see Manual):
    Electrostatics sSAPT0          -2.07792196 [mEh]      -1.30391572 [kcal/mol]      -5.45558336 [kJ/mol]
    Exchange sSAPT0                 0.08043033 [mEh]       0.05047079 [kcal/mol]       0.21116980 [kJ/mol]
    Induction sSAPT0               -0.13954912 [mEh]      -0.08756840 [kcal/mol]      -0.36638617 [kJ/mol]
    Dispersion sSAPT0              -0.56124108 [mEh]      -0.35218410 [kcal/mol]      -1.47353826 [kJ/mol]
  Total sSAPT0                     -2.69828184 [mEh]      -1.69319741 [kcal/mol]      -7.08433798 [kJ/mol]
  --------------------------------------------------------------------------------------------------------

*** Psi4 exiting successfully. Buy a developer a beer!
