                               Psi4 1.4a2.dev224

  ==> Input File <==

--------------------------------------------------------------------------
#Generated by lconvert.py for sapt job

memory 50 GB

molecule  {
0 1
  N      -2.266530    1.755160    0.352360
  C      -3.256290    0.724730    0.014240
  C      -2.422570   -0.289460   -0.775650
  C      -0.987250   -0.118690   -0.221530
  C      -1.119260    0.978990    0.839250
  H      -4.073720    1.148830   -0.565260
  H      -3.672930    0.252960    0.912840
  H      -2.802790   -1.300340   -0.649960
  H      -2.444770   -0.045290   -1.834260
  H      -0.590360   -1.037110    0.204170
  H      -0.318530    0.207680   -1.013410
  H      -1.319500    0.532970    1.821400
  H      -0.233290    1.605750    0.917350
  H      -2.617720    2.379590    1.069600
--
0 1
  O      -1.164560    2.745140   -2.807070
  H      -1.504620    2.653210   -1.897910
  H      -1.209860    3.686590   -2.980040
units angstrom
no_reorient
symmetry c1
}

set {
scf_type DF
basis aug-cc-pvtz
freeze_core True
guess SAD
}
energy('sapt2+')
--------------------------------------------------------------------------

  //              Dimer HF             //
    Molecular point group: c1
  Charge       = 0
  Multiplicity = 1
  Basis Set: AUG-CC-PVTZ
    Blend: AUG-CC-PVTZ
  Basis Set: (AUG-CC-PVTZ AUX)
    Blend: AUG-CC-PVTZ-JKFIT
  @DF-RHF Final Energy:  -287.28885353624264
    Total Energy =                       -287.2888535362426410
  //            Monomer A HF           //
    Molecular point group: c1
  Multiplicity = 1
  Basis Set: AUG-CC-PVTZ
    Blend: AUG-CC-PVTZ
  Basis Set: (AUG-CC-PVTZ AUX)
    Blend: AUG-CC-PVTZ-JKFIT
  @DF-RHF Final Energy:  -211.22286189892600
    Total Energy =                       -211.2228618989259985
  //            Monomer B HF           //
    Molecular point group: c1

    Geometry (in Angstrom), charge = 0, multiplicity = 1:

       Center              X                  Y                   Z               Mass
    ------------   -----------------  -----------------  -----------------  -----------------
      Gh(N)          -0.417258478142     0.697770998201     0.865761623621    14.003074004430
      Gh(C)          -1.407018478142    -0.332659001799     0.527641623621    12.000000000000
      Gh(C)          -0.573298478142    -1.346849001799    -0.262248376379    12.000000000000
      Gh(C)           0.862021521858    -1.176079001799     0.291871623621    12.000000000000
      Gh(C)           0.730011521858    -0.078399001799     1.352651623621    12.000000000000
      Gh(H)          -2.224448478142     0.091440998201    -0.051858376379     1.007825032230
      Gh(H)          -1.823658478142    -0.804429001799     1.426241623621     1.007825032230
      Gh(H)          -0.953518478142    -2.357729001799    -0.136558376379     1.007825032230
      Gh(H)          -0.595498478142    -1.102679001799    -1.320858376379     1.007825032230
      Gh(H)           1.258911521858    -2.094499001799     0.717571623621     1.007825032230
      Gh(H)           1.530741521858    -0.849709001799    -0.500008376379     1.007825032230
      Gh(H)           0.529771521858    -0.524419001799     2.334801623621     1.007825032230
      Gh(H)           1.615981521858     0.548360998201     1.430751623621     1.007825032230
      Gh(H)          -0.768448478142     1.322200998201     1.583001623621     1.007825032230
         O            0.684711521858     1.687750998201    -2.293668376379    15.994914619570
         H            0.344651521858     1.595820998201    -1.384508376379     1.007825032230
         H            0.639411521858     2.629200998201    -2.466638376379     1.007825032230

  Charge       = 0
  Multiplicity = 1
  Basis Set: AUG-CC-PVTZ
    Blend: AUG-CC-PVTZ
  Basis Set: (AUG-CC-PVTZ AUX)
    Blend: AUG-CC-PVTZ-JKFIT

    Orbital Energies [Eh]
    ---------------------

    Doubly Occupied:

       1A    -20.568946     2A     -1.349059     3A     -0.711991
       4A     -0.583767     5A     -0.509685

  @DF-RHF Final Energy:   -76.05974375153816

   => Energetics <=

    Nuclear Repulsion Energy =              9.1065987029703095
    One-Electron Energy =                -122.8857863164409139
    Two-Electron Energy =                  37.7194438619324472
    Total Energy =                        -76.0597437515381642

  Dipole Moment: [D]
     X:    -0.6463      Y:     1.4323      Z:     1.2323     Total:     1.9969

    SAPT Results
  --------------------------------------------------------------------------------------------------------
    Electrostatics                 -8.21724288 [mEh]      -5.15639775 [kcal/mol]     -21.57436820 [kJ/mol]
      Elst10,r                     -8.00237949 [mEh]      -5.02156894 [kcal/mol]     -21.01024445 [kJ/mol]
      Elst12,r                     -0.21486339 [mEh]      -0.13482881 [kcal/mol]      -0.56412375 [kJ/mol]

    Exchange                        4.06509684 [mEh]       2.55088678 [kcal/mol]      10.67291028 [kJ/mol]
      Exch10                        3.35124620 [mEh]       2.10293874 [kcal/mol]       8.79869568 [kJ/mol]
      Exch10(S^2)                   3.34401490 [mEh]       2.09840103 [kcal/mol]       8.77970990 [kJ/mol]
      Exch11(S^2)                   0.06688290 [mEh]       0.04196965 [kcal/mol]       0.17560103 [kJ/mol]
      Exch12(S^2)                   0.64696774 [mEh]       0.40597839 [kcal/mol]       1.69861357 [kJ/mol]

    Induction                      -1.76911976 [mEh]      -1.11013941 [kcal/mol]      -4.64482330 [kJ/mol]
      Ind20,r                      -2.09846317 [mEh]      -1.31680552 [kcal/mol]      -5.50951429 [kJ/mol]
      Ind22                        -0.32522040 [mEh]      -0.20407888 [kcal/mol]      -0.85386604 [kJ/mol]
      Exch-Ind20,r                  0.98627471 [mEh]       0.61889672 [kcal/mol]       2.58946389 [kJ/mol]
      Exch-Ind22                    0.15285313 [mEh]       0.09591678 [kcal/mol]       0.40131582 [kJ/mol]
      delta HF,r (2)               -0.48456403 [mEh]      -0.30406852 [kcal/mol]      -1.27222269 [kJ/mol]

    Dispersion                     -3.42388453 [mEh]      -2.14851998 [kcal/mol]      -8.98940759 [kJ/mol]
      Disp20                       -3.34872301 [mEh]      -2.10135541 [kcal/mol]      -8.79207104 [kJ/mol]
      Disp21                        0.26631145 [mEh]       0.16711296 [kcal/mol]       0.69920062 [kJ/mol]
      Disp22 (SDQ)                 -0.06471157 [mEh]      -0.04060712 [kcal/mol]      -0.16990019 [kJ/mol]
      Disp22 (T)                   -0.54121017 [mEh]      -0.33961451 [kcal/mol]      -1.42094711 [kJ/mol]
      Est. Disp22 (T)              -0.61042402 [mEh]      -0.38304685 [kcal/mol]      -1.60266804 [kJ/mol]
      Exch-Disp20                   0.33366261 [mEh]       0.20937645 [kcal/mol]       0.87603106 [kJ/mol]

  Total HF                         -6.24788578 [mEh]      -3.92060752 [kcal/mol]     -16.40382185 [kJ/mol]
  Total SAPT0                      -9.26294617 [mEh]      -5.81258648 [kcal/mol]     -24.31986183 [kJ/mol]
  Total SAPT2                      -8.93632620 [mEh]      -5.60762935 [kcal/mol]     -23.46232120 [kJ/mol]
  Total SAPT2+                     -9.34515033 [mEh]      -5.86417036 [kcal/mol]     -24.53568881 [kJ/mol]

  Special recipe for scaled SAPT0 (see Manual):
    Electrostatics sSAPT0          -8.00237949 [mEh]      -5.02156894 [kcal/mol]     -21.01024445 [kJ/mol]
    Exchange sSAPT0                 3.35124620 [mEh]       2.10293874 [kcal/mol]       8.79869568 [kJ/mol]
    Induction sSAPT0               -1.59034030 [mEh]      -0.99795361 [kcal/mol]      -4.17543789 [kJ/mol]
    Dispersion sSAPT0              -3.01289111 [mEh]      -1.89061772 [kcal/mol]      -7.91034453 [kJ/mol]
  Total sSAPT0                     -9.25436470 [mEh]      -5.80720153 [kcal/mol]     -24.29733118 [kJ/mol]
  --------------------------------------------------------------------------------------------------------

*** Psi4 exiting successfully. Buy a developer a beer!
