                               Psi4 1.4a2.dev224

  ==> Input File <==

--------------------------------------------------------------------------
#Generated by lconvert.py for sapt job

memory 50 GB

molecule  {
0 1
  C      -3.904190    0.464230    0.173390
  C      -3.131950    1.494990    0.704750
  C      -1.763680    1.547210    0.454380
  C      -1.172050    0.560880   -0.333670
  C      -1.933130   -0.472460   -0.870840
  C      -3.300910   -0.514670   -0.611530
  O      -4.016840   -1.554910   -1.157160
  H      -4.969020    0.422110    0.369330
  H      -3.604730    2.253400    1.313310
  H      -1.165630    2.346970    0.866930
  H      -0.110510    0.593760   -0.536420
  H      -1.488590   -1.240700   -1.488160
  H      -4.945500   -1.431020   -0.935450
--
0 1
  O      -1.744880   -4.067830   -3.655180
  H      -1.788620   -4.982790   -3.373130
  H      -2.425400   -3.632640   -3.130060
units angstrom
no_reorient
symmetry c1
}

set {
scf_type DF
basis aug-cc-pvtz
freeze_core True
guess SAD
}
energy('sapt2+')
--------------------------------------------------------------------------

  //              Dimer HF             //
    Molecular point group: c1
  Charge       = 0
  Multiplicity = 1
  Basis Set: AUG-CC-PVTZ
    Blend: AUG-CC-PVTZ
  Basis Set: (AUG-CC-PVTZ AUX)
    Blend: AUG-CC-PVTZ-JKFIT
  @DF-RHF Final Energy:  -381.73407126265965
    Total Energy =                       -381.7340712626596542
  //            Monomer A HF           //
    Molecular point group: c1
  Multiplicity = 1
  Basis Set: AUG-CC-PVTZ
    Blend: AUG-CC-PVTZ
  Basis Set: (AUG-CC-PVTZ AUX)
    Blend: AUG-CC-PVTZ-JKFIT
  @DF-RHF Final Energy:  -305.67184774217731
    Total Energy =                       -305.6718477421773059
  //            Monomer B HF           //
    Molecular point group: c1

    Geometry (in Angstrom), charge = 0, multiplicity = 1:

       Center              X                  Y                   Z               Mass
    ------------   -----------------  -----------------  -----------------  -----------------
      Gh(C)          -1.268927754477     0.987988133090     0.974291482969    12.000000000000
      Gh(C)          -0.496687754477     2.018748133090     1.505651482969    12.000000000000
      Gh(C)           0.871582245523     2.070968133090     1.255281482969    12.000000000000
      Gh(C)           1.463212245523     1.084638133090     0.467231482969    12.000000000000
      Gh(C)           0.702132245523     0.051298133090    -0.069938517031    12.000000000000
      Gh(C)          -0.665647754477     0.009088133090     0.189371482969    12.000000000000
      Gh(O)          -1.381577754477    -1.031151866910    -0.356258517031    15.994914619570
      Gh(H)          -2.333757754477     0.945868133090     1.170231482969     1.007825032230
      Gh(H)          -0.969467754477     2.777158133090     2.114211482969     1.007825032230
      Gh(H)           1.469632245523     2.870728133090     1.667831482969     1.007825032230
      Gh(H)           2.524752245523     1.117518133090     0.264481482969     1.007825032230
      Gh(H)           1.146672245523    -0.716941866910    -0.687258517031     1.007825032230
      Gh(H)          -2.310237754477    -0.907261866910    -0.134548517031     1.007825032230
         O            0.890382245523    -3.544071866910    -2.854278517031    15.994914619570
         H            0.846642245523    -4.459031866910    -2.572228517031     1.007825032230
         H            0.209862245523    -3.108881866910    -2.329158517031     1.007825032230

  Charge       = 0
  Multiplicity = 1
  Basis Set: AUG-CC-PVTZ
    Blend: AUG-CC-PVTZ
  Basis Set: (AUG-CC-PVTZ AUX)
    Blend: AUG-CC-PVTZ-JKFIT

    Orbital Energies [Eh]
    ---------------------

    Doubly Occupied:

       1A    -20.568154     2A     -1.352198     3A     -0.714425
       4A     -0.585608     5A     -0.510260

  @DF-RHF Final Energy:   -76.06029737771107

   => Energetics <=

    Nuclear Repulsion Energy =              9.1608352122689602
    One-Electron Energy =                -122.9809713896815140
    Two-Electron Energy =                  37.7598387997014839
    Total Energy =                        -76.0602973777110662

  Dipole Moment: [D]
     X:    -1.2201      Y:    -0.8105      Z:     1.3593     Total:     1.9983

    SAPT Results
  --------------------------------------------------------------------------------------------------------
    Electrostatics                 -1.75133612 [mEh]      -1.09898001 [kcal/mol]      -4.59813236 [kJ/mol]
      Elst10,r                     -1.92298174 [mEh]      -1.20668926 [kcal/mol]      -5.04878787 [kJ/mol]
      Elst12,r                      0.17164562 [mEh]       0.10770925 [kcal/mol]       0.45065551 [kJ/mol]

    Exchange                        0.17935637 [mEh]       0.11254782 [kcal/mol]       0.47090009 [kJ/mol]
      Exch10                        0.13491507 [mEh]       0.08466048 [kcal/mol]       0.35421947 [kJ/mol]
      Exch10(S^2)                   0.13490089 [mEh]       0.08465159 [kcal/mol]       0.35418225 [kJ/mol]
      Exch11(S^2)                  -0.00074052 [mEh]      -0.00046469 [kcal/mol]      -0.00194425 [kJ/mol]
      Exch12(S^2)                   0.04518183 [mEh]       0.02835203 [kcal/mol]       0.11862488 [kJ/mol]

    Induction                      -0.14546838 [mEh]      -0.09128279 [kcal/mol]      -0.38192719 [kJ/mol]
      Ind20,r                      -0.13943349 [mEh]      -0.08749584 [kcal/mol]      -0.36608258 [kJ/mol]
      Ind22                        -0.00838413 [mEh]      -0.00526112 [kcal/mol]      -0.02201253 [kJ/mol]
      Exch-Ind20,r                  0.01649502 [mEh]       0.01035078 [kcal/mol]       0.04330767 [kJ/mol]
      Exch-Ind22                    0.00099185 [mEh]       0.00062239 [kcal/mol]       0.00260409 [kJ/mol]
      delta HF,r (2)               -0.01513762 [mEh]      -0.00949900 [kcal/mol]      -0.03974383 [kJ/mol]

    Dispersion                     -0.72350345 [mEh]      -0.45400527 [kcal/mol]      -1.89955805 [kJ/mol]
      Disp20                       -0.65362368 [mEh]      -0.41015505 [kcal/mol]      -1.71608874 [kJ/mol]
      Disp21                        0.05581547 [mEh]       0.03502474 [kcal/mol]       0.14654351 [kJ/mol]
      Disp22 (SDQ)                 -0.00461054 [mEh]      -0.00289316 [kcal/mol]      -0.01210498 [kJ/mol]
      Disp22 (T)                   -0.12702079 [mEh]      -0.07970675 [kcal/mol]      -0.33349305 [kJ/mol]
      Est. Disp22 (T)              -0.13662096 [mEh]      -0.08573095 [kcal/mol]      -0.35869829 [kJ/mol]
      Exch-Disp20                   0.01553626 [mEh]       0.00974915 [kcal/mol]       0.04079045 [kJ/mol]

  Total HF                         -1.92614277 [mEh]      -1.20867284 [kcal/mol]      -5.05708715 [kJ/mol]
  Total SAPT0                      -2.56423019 [mEh]      -1.60907874 [kcal/mol]      -6.73238544 [kJ/mol]
  Total SAPT2                      -2.35553555 [mEh]      -1.47812088 [kcal/mol]      -6.18445774 [kJ/mol]
  Total SAPT2+                     -2.44095158 [mEh]      -1.53172024 [kcal/mol]      -6.40871750 [kJ/mol]

  Special recipe for scaled SAPT0 (see Manual):
    Electrostatics sSAPT0          -1.92298174 [mEh]      -1.20668926 [kcal/mol]      -5.04878787 [kJ/mol]
    Exchange sSAPT0                 0.13491507 [mEh]       0.08466048 [kcal/mol]       0.35421947 [kJ/mol]
    Induction sSAPT0               -0.13807090 [mEh]      -0.08664080 [kcal/mol]      -0.36250509 [kJ/mol]
    Dispersion sSAPT0              -0.63808252 [mEh]      -0.40040283 [kcal/mol]      -1.67528543 [kJ/mol]
  Total sSAPT0                     -2.56422009 [mEh]      -1.60907240 [kcal/mol]      -6.73235893 [kJ/mol]
  --------------------------------------------------------------------------------------------------------

*** Psi4 exiting successfully. Buy a developer a beer!
