                               Psi4 1.4a2.dev224

  ==> Input File <==

--------------------------------------------------------------------------
#Generated by lconvert.py for sapt job

memory 50 GB

molecule  {
0 1
  C      -3.904190    0.464230    0.173390
  C      -3.131950    1.494990    0.704750
  C      -1.763680    1.547210    0.454380
  C      -1.172050    0.560880   -0.333670
  C      -1.933130   -0.472460   -0.870840
  C      -3.300910   -0.514670   -0.611530
  O      -4.016840   -1.554910   -1.157160
  H      -4.969020    0.422110    0.369330
  H      -3.604730    2.253400    1.313310
  H      -1.165630    2.346970    0.866930
  H      -0.110510    0.593760   -0.536420
  H      -1.488590   -1.240700   -1.488160
  H      -4.945500   -1.431020   -0.935450
--
0 1
  O      -2.043280   -3.678260   -3.285260
  H      -2.087010   -4.593210   -3.003220
  H      -2.723800   -3.243060   -2.760140
units angstrom
no_reorient
symmetry c1
}

set {
scf_type DF
basis aug-cc-pvtz
freeze_core True
guess SAD
}
energy('sapt2+')
--------------------------------------------------------------------------

  //              Dimer HF             //
    Molecular point group: c1
  Charge       = 0
  Multiplicity = 1
  Basis Set: AUG-CC-PVTZ
    Blend: AUG-CC-PVTZ
  Basis Set: (AUG-CC-PVTZ AUX)
    Blend: AUG-CC-PVTZ-JKFIT
  @DF-RHF Final Energy:  -381.73557721436509
    Total Energy =                       -381.7355772143650938
  //            Monomer A HF           //
    Molecular point group: c1
  Multiplicity = 1
  Basis Set: AUG-CC-PVTZ
    Blend: AUG-CC-PVTZ
  Basis Set: (AUG-CC-PVTZ AUX)
    Blend: AUG-CC-PVTZ-JKFIT
  @DF-RHF Final Energy:  -305.67187599395470
    Total Energy =                       -305.6718759939546999
  //            Monomer B HF           //
    Molecular point group: c1

    Geometry (in Angstrom), charge = 0, multiplicity = 1:

       Center              X                  Y                   Z               Mass
    ------------   -----------------  -----------------  -----------------  -----------------
      Gh(C)          -1.220965006613     0.925371053997     0.914833084436    12.000000000000
      Gh(C)          -0.448725006613     1.956131053997     1.446193084436    12.000000000000
      Gh(C)           0.919544993387     2.008351053997     1.195823084436    12.000000000000
      Gh(C)           1.511174993387     1.022021053997     0.407773084436    12.000000000000
      Gh(C)           0.750094993387    -0.011318946003    -0.129396915564    12.000000000000
      Gh(C)          -0.617685006613    -0.053528946003     0.129913084436    12.000000000000
      Gh(O)          -1.333615006613    -1.093768946003    -0.415716915564    15.994914619570
      Gh(H)          -2.285795006613     0.883251053997     1.110773084436     1.007825032230
      Gh(H)          -0.921505006613     2.714541053997     2.054753084436     1.007825032230
      Gh(H)           1.517594993387     2.808111053997     1.608373084436     1.007825032230
      Gh(H)           2.572714993387     1.054901053997     0.205023084436     1.007825032230
      Gh(H)           1.194634993387    -0.779558946003    -0.746716915564     1.007825032230
      Gh(H)          -2.262275006613    -0.969878946003    -0.194006915564     1.007825032230
         O            0.639944993387    -3.217118946003    -2.543816915564    15.994914619570
         H            0.596214993387    -4.132068946003    -2.261776915564     1.007825032230
         H           -0.040575006613    -2.781918946003    -2.018696915564     1.007825032230

  Charge       = 0
  Multiplicity = 1
  Basis Set: AUG-CC-PVTZ
    Blend: AUG-CC-PVTZ
  Basis Set: (AUG-CC-PVTZ AUX)
    Blend: AUG-CC-PVTZ-JKFIT

    Orbital Energies [Eh]
    ---------------------

    Doubly Occupied:

       1A    -20.568115     2A     -1.352168     3A     -0.714400
       4A     -0.585580     5A     -0.510251

  @DF-RHF Final Energy:   -76.06032152499563

   => Energetics <=

    Nuclear Repulsion Energy =              9.1608729252487677
    One-Electron Energy =                -122.9813589696307332
    Two-Electron Energy =                  37.7601645193863362
    Total Energy =                        -76.0603215249956293

  Dipole Moment: [D]
     X:    -1.2198      Y:    -0.8100      Z:     1.3586     Total:     1.9975

    SAPT Results
  --------------------------------------------------------------------------------------------------------
    Electrostatics                 -3.72541395 [mEh]      -2.33773255 [kcal/mol]      -9.78107298 [kJ/mol]
      Elst10,r                     -3.94915541 [mEh]      -2.47813243 [kcal/mol]     -10.36850610 [kJ/mol]
      Elst12,r                      0.22374146 [mEh]       0.14039988 [kcal/mol]       0.58743311 [kJ/mol]

    Exchange                        1.36194762 [mEh]       0.85463503 [kcal/mol]       3.57579298 [kJ/mol]
      Exch10                        1.08396543 [mEh]       0.68019858 [kcal/mol]       2.84595085 [kJ/mol]
      Exch10(S^2)                   1.08329139 [mEh]       0.67977561 [kcal/mol]       2.84418115 [kJ/mol]
      Exch11(S^2)                   0.00041742 [mEh]       0.00026193 [kcal/mol]       0.00109594 [kJ/mol]
      Exch12(S^2)                   0.27756477 [mEh]       0.17417452 [kcal/mol]       0.72874620 [kJ/mol]

    Induction                      -0.56448077 [mEh]      -0.35421703 [kcal/mol]      -1.48204406 [kJ/mol]
      Ind20,r                      -0.56904996 [mEh]      -0.35708424 [kcal/mol]      -1.49404048 [kJ/mol]
      Ind22                        -0.07080492 [mEh]      -0.04443076 [kcal/mol]      -0.18589829 [kJ/mol]
      Exch-Ind20,r                  0.16740470 [mEh]       0.10504803 [kcal/mol]       0.43952097 [kJ/mol]
      Exch-Ind22                    0.02082959 [mEh]       0.01307076 [kcal/mol]       0.05468807 [kJ/mol]
      delta HF,r (2)               -0.11286017 [mEh]      -0.07082083 [kcal/mol]      -0.29631433 [kJ/mol]

    Dispersion                     -1.82328534 [mEh]      -1.14412882 [kcal/mol]      -4.78703499 [kJ/mol]
      Disp20                       -1.67912017 [mEh]      -1.05366382 [kcal/mol]      -4.40852941 [kJ/mol]
      Disp21                        0.10995496 [mEh]       0.06899778 [kcal/mol]       0.28868671 [kJ/mol]
      Disp22 (SDQ)                 -0.02202395 [mEh]      -0.01382024 [kcal/mol]      -0.05782388 [kJ/mol]
      Disp22 (T)                   -0.30544574 [mEh]      -0.19167010 [kcal/mol]      -0.80194768 [kJ/mol]
      Est. Disp22 (T)              -0.33780151 [mEh]      -0.21197365 [kcal/mol]      -0.88689774 [kJ/mol]
      Exch-Disp20                   0.10570534 [mEh]       0.06633110 [kcal/mol]       0.27752934 [kJ/mol]

  Total HF                         -3.37969541 [mEh]      -2.12079089 [kcal/mol]      -8.87338909 [kJ/mol]
  Total SAPT0                      -4.95311025 [mEh]      -3.10812360 [kcal/mol]     -13.00438916 [kJ/mol]
  Total SAPT2                      -4.50136193 [mEh]      -2.82464726 [kcal/mol]     -11.81832413 [kJ/mol]
  Total SAPT2+                     -4.75123244 [mEh]      -2.98144337 [kcal/mol]     -12.47435905 [kJ/mol]

  Special recipe for scaled SAPT0 (see Manual):
    Electrostatics sSAPT0          -3.94915541 [mEh]      -2.47813243 [kcal/mol]     -10.36850610 [kJ/mol]
    Exchange sSAPT0                 1.08396543 [mEh]       0.68019858 [kcal/mol]       2.84595085 [kJ/mol]
    Induction sSAPT0               -0.51419276 [mEh]      -0.32266083 [kcal/mol]      -1.35001290 [kJ/mol]
    Dispersion sSAPT0              -1.57321739 [mEh]      -0.98720882 [kcal/mol]      -4.13048170 [kJ/mol]
  Total sSAPT0                     -4.95260013 [mEh]      -3.10780350 [kcal/mol]     -13.00304984 [kJ/mol]
  --------------------------------------------------------------------------------------------------------

*** Psi4 exiting successfully. Buy a developer a beer!
