                               Psi4 1.4a2.dev224

  ==> Input File <==

--------------------------------------------------------------------------
#Generated by lconvert.py for sapt job

memory 50 GB

molecule  {
0 1
  C      -3.904190    0.464230    0.173390
  C      -3.131950    1.494990    0.704750
  C      -1.763680    1.547210    0.454380
  C      -1.172050    0.560880   -0.333670
  C      -1.933130   -0.472460   -0.870840
  C      -3.300910   -0.514670   -0.611530
  O      -4.016840   -1.554910   -1.157160
  H      -4.969020    0.422110    0.369330
  H      -3.604730    2.253400    1.313310
  H      -1.165630    2.346970    0.866930
  H      -0.110510    0.593760   -0.536420
  H      -1.488590   -1.240700   -1.488160
  H      -4.945500   -1.431020   -0.935450
--
0 1
  O      -1.446490   -4.457410   -4.025100
  H      -1.490220   -5.372360   -3.743050
  H      -2.127010   -4.022210   -3.499970
units angstrom
no_reorient
symmetry c1
}

set {
scf_type DF
basis aug-cc-pvtz
freeze_core True
guess SAD
}
energy('sapt2+')
--------------------------------------------------------------------------

  //              Dimer HF             //
    Molecular point group: c1
  Charge       = 0
  Multiplicity = 1
  Basis Set: AUG-CC-PVTZ
    Blend: AUG-CC-PVTZ
  Basis Set: (AUG-CC-PVTZ AUX)
    Blend: AUG-CC-PVTZ-JKFIT
  @DF-RHF Final Energy:  -381.73323088255006
    Total Energy =                       -381.7332308825500604
  //            Monomer A HF           //
    Molecular point group: c1
  Multiplicity = 1
  Basis Set: AUG-CC-PVTZ
    Blend: AUG-CC-PVTZ
  Basis Set: (AUG-CC-PVTZ AUX)
    Blend: AUG-CC-PVTZ-JKFIT
  @DF-RHF Final Energy:  -305.67184097589143
    Total Energy =                       -305.6718409758914277
  //            Monomer B HF           //
    Molecular point group: c1

    Geometry (in Angstrom), charge = 0, multiplicity = 1:

       Center              X                  Y                   Z               Mass
    ------------   -----------------  -----------------  -----------------  -----------------
      Gh(C)          -1.316889074891     1.050606459749     1.033749881502    12.000000000000
      Gh(C)          -0.544649074891     2.081366459749     1.565109881502    12.000000000000
      Gh(C)           0.823620925109     2.133586459749     1.314739881502    12.000000000000
      Gh(C)           1.415250925109     1.147256459749     0.526689881502    12.000000000000
      Gh(C)           0.654170925109     0.113916459749    -0.010480118498    12.000000000000
      Gh(C)          -0.713609074891     0.071706459749     0.248829881502    12.000000000000
      Gh(O)          -1.429539074891    -0.968533540251    -0.296800118498    15.994914619570
      Gh(H)          -2.381719074891     1.008486459749     1.229689881502     1.007825032230
      Gh(H)          -1.017429074891     2.839776459749     2.173669881502     1.007825032230
      Gh(H)           1.421670925109     2.933346459749     1.727289881502     1.007825032230
      Gh(H)           2.476790925109     1.180136459749     0.323939881502     1.007825032230
      Gh(H)           1.098710925109    -0.654323540251    -0.627800118498     1.007825032230
      Gh(H)          -2.358199074891    -0.844643540251    -0.075090118498     1.007825032230
         O            1.140810925109    -3.871033540251    -3.164740118498    15.994914619570
         H            1.097080925109    -4.785983540251    -2.882690118498     1.007825032230
         H            0.460290925109    -3.435833540251    -2.639610118498     1.007825032230

  Charge       = 0
  Multiplicity = 1
  Basis Set: AUG-CC-PVTZ
    Blend: AUG-CC-PVTZ
  Basis Set: (AUG-CC-PVTZ AUX)
    Blend: AUG-CC-PVTZ-JKFIT

    Orbital Energies [Eh]
    ---------------------

    Doubly Occupied:

       1A    -20.568157     2A     -1.352203     3A     -0.714431
       4A     -0.585611     5A     -0.510264

  @DF-RHF Final Energy:   -76.06029026301285

   => Energetics <=

    Nuclear Repulsion Energy =              9.1608345063379364
    One-Electron Energy =                -122.9809111353241207
    Two-Electron Energy =                  37.7597863659733406
    Total Energy =                        -76.0602902630128455

  Dipole Moment: [D]
     X:    -1.2200      Y:    -0.8106      Z:     1.3594     Total:     1.9984

    SAPT Results
  --------------------------------------------------------------------------------------------------------
    Electrostatics                 -0.94887055 [mEh]      -0.59542526 [kcal/mol]      -2.49125929 [kJ/mol]
      Elst10,r                     -1.06639703 [mEh]      -0.66917424 [kcal/mol]      -2.79982501 [kJ/mol]
      Elst12,r                      0.11752648 [mEh]       0.07374898 [kcal/mol]       0.30856572 [kJ/mol]

    Exchange                        0.02317297 [mEh]       0.01454126 [kcal/mol]       0.06084061 [kJ/mol]
      Exch10                        0.01652458 [mEh]       0.01036933 [kcal/mol]       0.04338528 [kJ/mol]
      Exch10(S^2)                   0.01652429 [mEh]       0.01036915 [kcal/mol]       0.04338452 [kJ/mol]
      Exch11(S^2)                  -0.00017763 [mEh]      -0.00011146 [kcal/mol]      -0.00046636 [kJ/mol]
      Exch12(S^2)                   0.00682601 [mEh]       0.00428339 [kcal/mol]       0.01792170 [kJ/mol]

    Induction                      -0.05012821 [mEh]      -0.03145593 [kcal/mol]      -0.13161161 [kJ/mol]
      Ind20,r                      -0.04882048 [mEh]      -0.03063531 [kcal/mol]      -0.12817815 [kJ/mol]
      Ind22                        -0.00037033 [mEh]      -0.00023238 [kcal/mol]      -0.00097229 [kJ/mol]
      Exch-Ind20,r                  0.00175478 [mEh]       0.00110114 [kcal/mol]       0.00460716 [kJ/mol]
      Exch-Ind22                    0.00001331 [mEh]       0.00000835 [kcal/mol]       0.00003495 [kJ/mol]
      delta HF,r (2)               -0.00270550 [mEh]      -0.00169772 [kcal/mol]      -0.00710328 [kJ/mol]

    Dispersion                     -0.32099648 [mEh]      -0.20142834 [kcal/mol]      -0.84277615 [kJ/mol]
      Disp20                       -0.29204289 [mEh]      -0.18325968 [kcal/mol]      -0.76675851 [kJ/mol]
      Disp21                        0.03145195 [mEh]       0.01973640 [kcal/mol]       0.08257708 [kJ/mol]
      Disp22 (SDQ)                 -0.00013276 [mEh]      -0.00008331 [kcal/mol]      -0.00034857 [kJ/mol]
      Disp22 (T)                   -0.05952537 [mEh]      -0.03735273 [kcal/mol]      -0.15628384 [kJ/mol]
      Est. Disp22 (T)              -0.06246365 [mEh]      -0.03919653 [kcal/mol]      -0.16399829 [kJ/mol]
      Exch-Disp20                   0.00219087 [mEh]       0.00137479 [kcal/mol]       0.00575213 [kJ/mol]

  Total HF                         -1.09964365 [mEh]      -0.69003681 [kcal/mol]      -2.88711399 [kJ/mol]
  Total SAPT0                      -1.38949567 [mEh]      -0.87192170 [kcal/mol]      -3.64812038 [kJ/mol]
  Total SAPT2                      -1.26567782 [mEh]      -0.79422482 [kcal/mol]      -3.32303667 [kJ/mol]
  Total SAPT2+                     -1.29682228 [mEh]      -0.81376827 [kcal/mol]      -3.40480644 [kJ/mol]

  Special recipe for scaled SAPT0 (see Manual):
    Electrostatics sSAPT0          -1.06639703 [mEh]      -0.66917424 [kcal/mol]      -2.79982501 [kJ/mol]
    Exchange sSAPT0                 0.01652458 [mEh]       0.01036933 [kcal/mol]       0.04338528 [kJ/mol]
    Induction sSAPT0               -0.04977111 [mEh]      -0.03123184 [kcal/mol]      -0.13067402 [kJ/mol]
    Dispersion sSAPT0              -0.28985191 [mEh]      -0.18188482 [kcal/mol]      -0.76100608 [kJ/mol]
  Total sSAPT0                     -1.38949546 [mEh]      -0.87192157 [kcal/mol]      -3.64811984 [kJ/mol]
  --------------------------------------------------------------------------------------------------------

*** Psi4 exiting successfully. Buy a developer a beer!
