                               Psi4 1.4a2.dev224

  ==> Input File <==

--------------------------------------------------------------------------
#Generated by lconvert.py for sapt job

memory 50 GB

molecule  {
0 1
  C      -3.555220   -0.145050    0.625060
  C      -3.185550    1.196340    0.554090
  C      -1.965330    1.566370   -0.005380
  C      -1.113310    0.577740   -0.495980
  C      -1.473890   -0.763770   -0.429410
  C      -2.697760   -1.131260    0.132030
  O      -3.000300   -2.456700    0.171870
  H      -4.503840   -0.431940    1.060060
  H      -3.857480    1.951680    0.939040
  H      -1.682140    2.607900   -0.058620
  H      -0.162200    0.849850   -0.933370
  H      -0.822580   -1.539990   -0.806080
  H      -3.872060   -2.569580    0.583710
--
0 1
  O      -7.086060   -3.350500    2.072940
  H      -7.748020   -3.765820    1.515370
  H      -7.090540   -3.875000    2.876960
units angstrom
no_reorient
symmetry c1
}

set {
scf_type DF
basis aug-cc-pvtz
freeze_core True
guess SAD
}
energy('sapt2+')
--------------------------------------------------------------------------

  //              Dimer HF             //
    Molecular point group: c1
  Charge       = 0
  Multiplicity = 1
  Basis Set: AUG-CC-PVTZ
    Blend: AUG-CC-PVTZ
  Basis Set: (AUG-CC-PVTZ AUX)
    Blend: AUG-CC-PVTZ-JKFIT
  @DF-RHF Final Energy:  -381.73468631692805
    Total Energy =                       -381.7346863169280482
  //            Monomer A HF           //
    Molecular point group: c1
  Multiplicity = 1
  Basis Set: AUG-CC-PVTZ
    Blend: AUG-CC-PVTZ
  Basis Set: (AUG-CC-PVTZ AUX)
    Blend: AUG-CC-PVTZ-JKFIT
  @DF-RHF Final Energy:  -305.67173489487783
    Total Energy =                       -305.6717348948778294
  //            Monomer B HF           //
    Molecular point group: c1

    Geometry (in Angstrom), charge = 0, multiplicity = 1:

       Center              X                  Y                   Z               Mass
    ------------   -----------------  -----------------  -----------------  -----------------
      Gh(C)          -0.349624582099     0.605555111528     0.217321897115    12.000000000000
      Gh(C)           0.020045417901     1.946945111528     0.146351897115    12.000000000000
      Gh(C)           1.240265417901     2.316975111528    -0.413118102885    12.000000000000
      Gh(C)           2.092285417901     1.328345111528    -0.903718102885    12.000000000000
      Gh(C)           1.731705417901    -0.013164888472    -0.837148102885    12.000000000000
      Gh(C)           0.507835417901    -0.380654888472    -0.275708102885    12.000000000000
      Gh(O)           0.205295417901    -1.706094888472    -0.235868102885    15.994914619570
      Gh(H)          -1.298244582099     0.318665111528     0.652321897115     1.007825032230
      Gh(H)          -0.651884582099     2.702285111528     0.531301897115     1.007825032230
      Gh(H)           1.523455417901     3.358505111528    -0.466358102885     1.007825032230
      Gh(H)           3.043395417901     1.600455111528    -1.341108102885     1.007825032230
      Gh(H)           2.383015417901    -0.789384888472    -1.213818102885     1.007825032230
      Gh(H)          -0.666464582099    -1.818974888472     0.175971897115     1.007825032230
         O           -3.880464582099    -2.599894888472     1.665201897115    15.994914619570
         H           -4.542424582099    -3.015214888472     1.107631897115     1.007825032230
         H           -3.884944582099    -3.124394888472     2.469221897115     1.007825032230

  Charge       = 0
  Multiplicity = 1
  Basis Set: AUG-CC-PVTZ
    Blend: AUG-CC-PVTZ
  Basis Set: (AUG-CC-PVTZ AUX)
    Blend: AUG-CC-PVTZ-JKFIT

    Orbital Energies [Eh]
    ---------------------

    Doubly Occupied:

       1A    -20.567783     2A     -1.352349     3A     -0.715913
       4A     -0.584857     5A     -0.510201

  @DF-RHF Final Energy:   -76.06041144963046

   => Energetics <=

    Nuclear Repulsion Energy =              9.1688480575843947
    One-Electron Energy =                -122.9963107347256823
    Two-Electron Energy =                  37.7670512275108265
    Total Energy =                        -76.0604114496304646

  Dipole Moment: [D]
     X:    -1.1257      Y:    -1.5862      Z:     0.4164     Total:     1.9891

    SAPT Results
  --------------------------------------------------------------------------------------------------------
    Electrostatics                 -2.22373802 [mEh]      -1.39541668 [kcal/mol]      -5.83842338 [kJ/mol]
      Elst10,r                     -2.43360551 [mEh]      -1.52711051 [kcal/mol]      -6.38943038 [kJ/mol]
      Elst12,r                      0.20986748 [mEh]       0.13169384 [kcal/mol]       0.55100701 [kJ/mol]

    Exchange                        0.04249506 [mEh]       0.02666605 [kcal/mol]       0.11157076 [kJ/mol]
      Exch10                        0.03031722 [mEh]       0.01902434 [kcal/mol]       0.07959784 [kJ/mol]
      Exch10(S^2)                   0.03031624 [mEh]       0.01902373 [kcal/mol]       0.07959528 [kJ/mol]
      Exch11(S^2)                  -0.00085976 [mEh]      -0.00053951 [kcal/mol]      -0.00225730 [kJ/mol]
      Exch12(S^2)                   0.01303760 [mEh]       0.00818122 [kcal/mol]       0.03423021 [kJ/mol]

    Induction                      -0.13882417 [mEh]      -0.08711348 [kcal/mol]      -0.36448282 [kJ/mol]
      Ind20,r                      -0.13213924 [mEh]      -0.08291862 [kcal/mol]      -0.34693151 [kJ/mol]
      Ind22                        -0.00220173 [mEh]      -0.00138160 [kcal/mol]      -0.00578063 [kJ/mol]
      Exch-Ind20,r                  0.00370176 [mEh]       0.00232289 [kcal/mol]       0.00971897 [kJ/mol]
      Exch-Ind22                    0.00006168 [mEh]       0.00003870 [kcal/mol]       0.00016194 [kJ/mol]
      delta HF,r (2)               -0.00824665 [mEh]      -0.00517485 [kcal/mol]      -0.02165158 [kJ/mol]

    Dispersion                     -0.36879939 [mEh]      -0.23142511 [kcal/mol]      -0.96828266 [kJ/mol]
      Disp20                       -0.33144250 [mEh]      -0.20798331 [kcal/mol]      -0.87020217 [kJ/mol]
      Disp21                        0.02979854 [mEh]       0.01869887 [kcal/mol]       0.07823606 [kJ/mol]
      Disp22 (SDQ)                 -0.00116288 [mEh]      -0.00072972 [kcal/mol]      -0.00305315 [kJ/mol]
      Disp22 (T)                   -0.06554439 [mEh]      -0.04112973 [kcal/mol]      -0.17208678 [kJ/mol]
      Est. Disp22 (T)              -0.06990704 [mEh]      -0.04386733 [kcal/mol]      -0.18354092 [kJ/mol]
      Exch-Disp20                   0.00391450 [mEh]       0.00245639 [kcal/mol]       0.01027752 [kJ/mol]

  Total HF                         -2.53997242 [mEh]      -1.59385676 [kcal/mol]      -6.66869667 [kJ/mol]
  Total SAPT0                      -2.86750042 [mEh]      -1.79938368 [kcal/mol]      -7.52862132 [kJ/mol]
  Total SAPT2                      -2.64759514 [mEh]      -1.66139103 [kcal/mol]      -6.95126009 [kJ/mol]
  Total SAPT2+                     -2.68886653 [mEh]      -1.68728922 [kcal/mol]      -7.05961810 [kJ/mol]

  Special recipe for scaled SAPT0 (see Manual):
    Electrostatics sSAPT0          -2.43360551 [mEh]      -1.52711051 [kcal/mol]      -6.38943038 [kJ/mol]
    Exchange sSAPT0                 0.03031722 [mEh]       0.01902434 [kcal/mol]       0.07959784 [kJ/mol]
    Induction sSAPT0               -0.13668377 [mEh]      -0.08577036 [kcal/mol]      -0.35886319 [kJ/mol]
    Dispersion sSAPT0              -0.32752762 [mEh]      -0.20552669 [kcal/mol]      -0.85992366 [kJ/mol]
  Total sSAPT0                     -2.86749969 [mEh]      -1.79938322 [kcal/mol]      -7.52861939 [kJ/mol]
  --------------------------------------------------------------------------------------------------------

*** Psi4 exiting successfully. Buy a developer a beer!
