                               Psi4 1.4a2.dev224

  ==> Input File <==

--------------------------------------------------------------------------
#Generated by lconvert.py for sapt job

memory 50 GB

molecule  {
0 1
  C      -3.555220   -0.145050    0.625060
  C      -3.185550    1.196340    0.554090
  C      -1.965330    1.566370   -0.005380
  C      -1.113310    0.577740   -0.495980
  C      -1.473890   -0.763770   -0.429410
  C      -2.697760   -1.131260    0.132030
  O      -3.000300   -2.456700    0.171870
  H      -4.503840   -0.431940    1.060060
  H      -3.857480    1.951680    0.939040
  H      -1.682140    2.607900   -0.058620
  H      -0.162200    0.849850   -0.933370
  H      -0.822580   -1.539990   -0.806080
  H      -3.872060   -2.569580    0.583710
--
0 1
  O      -6.578580   -3.227200    1.837800
  H      -7.240540   -3.642520    1.280230
  H      -6.583070   -3.751690    2.641820
units angstrom
no_reorient
symmetry c1
}

set {
scf_type DF
basis aug-cc-pvtz
freeze_core True
guess SAD
}
energy('sapt2+')
--------------------------------------------------------------------------

  //              Dimer HF             //
    Molecular point group: c1
  Charge       = 0
  Multiplicity = 1
  Basis Set: AUG-CC-PVTZ
    Blend: AUG-CC-PVTZ
  Basis Set: (AUG-CC-PVTZ AUX)
    Blend: AUG-CC-PVTZ-JKFIT
  @DF-RHF Final Energy:  -381.73618738351524
    Total Energy =                       -381.7361873835152437
  //            Monomer A HF           //
    Molecular point group: c1
  Multiplicity = 1
  Basis Set: AUG-CC-PVTZ
    Blend: AUG-CC-PVTZ
  Basis Set: (AUG-CC-PVTZ AUX)
    Blend: AUG-CC-PVTZ-JKFIT
  @DF-RHF Final Energy:  -305.67174393130296
    Total Energy =                       -305.6717439313029558
  //            Monomer B HF           //
    Molecular point group: c1

    Geometry (in Angstrom), charge = 0, multiplicity = 1:

       Center              X                  Y                   Z               Mass
    ------------   -----------------  -----------------  -----------------  -----------------
      Gh(C)          -0.431193463100     0.585736596983     0.255116741893    12.000000000000
      Gh(C)          -0.061523463100     1.927126596983     0.184146741893    12.000000000000
      Gh(C)           1.158696536900     2.297156596983    -0.375323258107    12.000000000000
      Gh(C)           2.010716536900     1.308526596983    -0.865923258107    12.000000000000
      Gh(C)           1.650136536900    -0.032983403017    -0.799353258107    12.000000000000
      Gh(C)           0.426266536900    -0.400473403017    -0.237913258107    12.000000000000
      Gh(O)           0.123726536900    -1.725913403017    -0.198073258107    15.994914619570
      Gh(H)          -1.379813463100     0.298846596983     0.690116741893     1.007825032230
      Gh(H)          -0.733453463100     2.682466596983     0.569096741893     1.007825032230
      Gh(H)           1.441886536900     3.338686596983    -0.428563258107     1.007825032230
      Gh(H)           2.961826536900     1.580636596983    -1.303313258107     1.007825032230
      Gh(H)           2.301446536900    -0.809203403017    -1.176023258107     1.007825032230
      Gh(H)          -0.748033463100    -1.838793403017     0.213766741893     1.007825032230
         O           -3.454553463100    -2.496413403017     1.467856741893    15.994914619570
         H           -4.116513463100    -2.911733403017     0.910286741893     1.007825032230
         H           -3.459043463100    -3.020903403017     2.271876741893     1.007825032230

  Charge       = 0
  Multiplicity = 1
  Basis Set: AUG-CC-PVTZ
    Blend: AUG-CC-PVTZ
  Basis Set: (AUG-CC-PVTZ AUX)
    Blend: AUG-CC-PVTZ-JKFIT

    Orbital Energies [Eh]
    ---------------------

    Doubly Occupied:

       1A    -20.567728     2A     -1.352316     3A     -0.715879
       4A     -0.584828     5A     -0.510193

  @DF-RHF Final Energy:   -76.06043154876319

   => Energetics <=

    Nuclear Repulsion Energy =              9.1688741057903478
    One-Electron Energy =                -122.9967230657777719
    Two-Electron Energy =                  37.7674174112242369
    Total Energy =                        -76.0604315487631766

  Dipole Moment: [D]
     X:    -1.1252      Y:    -1.5852      Z:     0.4162     Total:     1.9880

    SAPT Results
  --------------------------------------------------------------------------------------------------------
    Electrostatics                 -3.59469819 [mEh]      -2.25570717 [kcal/mol]      -9.43787880 [kJ/mol]
      Elst10,r                     -3.90191399 [mEh]      -2.44848799 [kcal/mol]     -10.24447376 [kJ/mol]
      Elst12,r                      0.30721579 [mEh]       0.19278082 [kcal/mol]       0.80659496 [kJ/mol]

    Exchange                        0.30324725 [mEh]       0.19029052 [kcal/mol]       0.79617554 [kJ/mol]
      Exch10                        0.22907004 [mEh]       0.14374362 [kcal/mol]       0.60142331 [kJ/mol]
      Exch10(S^2)                   0.22902507 [mEh]       0.14371540 [kcal/mol]       0.60130523 [kJ/mol]
      Exch11(S^2)                  -0.00323349 [mEh]      -0.00202904 [kcal/mol]      -0.00848952 [kJ/mol]
      Exch12(S^2)                   0.07741070 [mEh]       0.04857595 [kcal/mol]       0.20324176 [kJ/mol]

    Induction                      -0.35591990 [mEh]      -0.22334311 [kcal/mol]      -0.93446758 [kJ/mol]
      Ind20,r                      -0.33082336 [mEh]      -0.20759479 [kcal/mol]      -0.86857662 [kJ/mol]
      Ind22                        -0.01871691 [mEh]      -0.01174504 [kcal/mol]      -0.04914124 [kJ/mol]
      Exch-Ind20,r                  0.03281399 [mEh]       0.02059109 [kcal/mol]       0.08615313 [kJ/mol]
      Exch-Ind22                    0.00185651 [mEh]       0.00116498 [kcal/mol]       0.00487426 [kJ/mol]
      delta HF,r (2)               -0.04105013 [mEh]      -0.02575935 [kcal/mol]      -0.10777711 [kJ/mol]

    Dispersion                     -0.82552638 [mEh]      -0.51802563 [kcal/mol]      -2.16741922 [kJ/mol]
      Disp20                       -0.73926813 [mEh]      -0.46389775 [kcal/mol]      -1.94094820 [kJ/mol]
      Disp21                        0.04825038 [mEh]       0.03027757 [kcal/mol]       0.12668136 [kJ/mol]
      Disp22 (SDQ)                 -0.00685551 [mEh]      -0.00430190 [kcal/mol]      -0.01799914 [kJ/mol]
      Disp22 (T)                   -0.14035326 [mEh]      -0.08807300 [kcal/mol]      -0.36849743 [kJ/mol]
      Est. Disp22 (T)              -0.15290278 [mEh]      -0.09594794 [kcal/mol]      -0.40144619 [kJ/mol]
      Exch-Disp20                   0.02524965 [mEh]       0.01584439 [kcal/mol]       0.06629295 [kJ/mol]

  Total HF                         -4.01190345 [mEh]      -2.51750742 [kcal/mol]     -10.53325105 [kJ/mol]
  Total SAPT0                      -4.72592193 [mEh]      -2.96556078 [kcal/mol]     -12.40790631 [kJ/mol]
  Total SAPT2                      -4.36138932 [mEh]      -2.73681312 [kcal/mol]     -11.45082609 [kJ/mol]
  Total SAPT2+                     -4.47289723 [mEh]      -2.80678539 [kcal/mol]     -11.74359005 [kJ/mol]

  Special recipe for scaled SAPT0 (see Manual):
    Electrostatics sSAPT0          -3.90191399 [mEh]      -2.44848799 [kcal/mol]     -10.24447376 [kJ/mol]
    Exchange sSAPT0                 0.22907004 [mEh]       0.14374362 [kcal/mol]       0.60142331 [kJ/mol]
    Induction sSAPT0               -0.33904017 [mEh]      -0.21275092 [kcal/mol]      -0.89014984 [kJ/mol]
    Dispersion sSAPT0              -0.71400360 [mEh]      -0.44804402 [kcal/mol]      -1.87461619 [kJ/mol]
  Total sSAPT0                     -4.72588771 [mEh]      -2.96553931 [kcal/mol]     -12.40781649 [kJ/mol]
  --------------------------------------------------------------------------------------------------------

*** Psi4 exiting successfully. Buy a developer a beer!
