                               Psi4 1.4a2.dev224

  ==> Input File <==

--------------------------------------------------------------------------
#Generated by lconvert.py for sapt job

memory 50 GB

molecule  {
0 1
  C      -3.555220   -0.145050    0.625060
  C      -3.185550    1.196340    0.554090
  C      -1.965330    1.566370   -0.005380
  C      -1.113310    0.577740   -0.495980
  C      -1.473890   -0.763770   -0.429410
  C      -2.697760   -1.131260    0.132030
  O      -3.000300   -2.456700    0.171870
  H      -4.503840   -0.431940    1.060060
  H      -3.857480    1.951680    0.939040
  H      -1.682140    2.607900   -0.058620
  H      -0.162200    0.849850   -0.933370
  H      -0.822580   -1.539990   -0.806080
  H      -3.872060   -2.569580    0.583710
--
0 1
  O      -6.071110   -3.103900    1.602660
  H      -6.733070   -3.519210    1.045080
  H      -6.075590   -3.628390    2.406680
units angstrom
no_reorient
symmetry c1
}

set {
scf_type DF
basis aug-cc-pvtz
freeze_core True
guess SAD
}
energy('sapt2+')
--------------------------------------------------------------------------

  //              Dimer HF             //
    Molecular point group: c1
  Charge       = 0
  Multiplicity = 1
  Basis Set: AUG-CC-PVTZ
    Blend: AUG-CC-PVTZ
  Basis Set: (AUG-CC-PVTZ AUX)
    Blend: AUG-CC-PVTZ-JKFIT
  @DF-RHF Final Energy:  -381.73862221583317
    Total Energy =                       -381.7386222158331748
  //            Monomer A HF           //
    Molecular point group: c1
  Multiplicity = 1
  Basis Set: AUG-CC-PVTZ
    Blend: AUG-CC-PVTZ
  Basis Set: (AUG-CC-PVTZ AUX)
    Blend: AUG-CC-PVTZ-JKFIT
  @DF-RHF Final Energy:  -305.67176990863345
    Total Energy =                       -305.6717699086334505
  //            Monomer B HF           //
    Molecular point group: c1

    Geometry (in Angstrom), charge = 0, multiplicity = 1:

       Center              X                  Y                   Z               Mass
    ------------   -----------------  -----------------  -----------------  -----------------
      Gh(C)          -0.512760916653     0.565918082438     0.292911676613    12.000000000000
      Gh(C)          -0.143090916653     1.907308082438     0.221941676613    12.000000000000
      Gh(C)           1.077129083347     2.277338082438    -0.337528323387    12.000000000000
      Gh(C)           1.929149083347     1.288708082438    -0.828128323387    12.000000000000
      Gh(C)           1.568569083347    -0.052801917562    -0.761558323387    12.000000000000
      Gh(C)           0.344699083347    -0.420291917562    -0.200118323387    12.000000000000
      Gh(O)           0.042159083347    -1.745731917562    -0.160278323387    15.994914619570
      Gh(H)          -1.461380916653     0.279028082438     0.727911676613     1.007825032230
      Gh(H)          -0.815020916653     2.662648082438     0.606891676613     1.007825032230
      Gh(H)           1.360319083347     3.318868082438    -0.390768323387     1.007825032230
      Gh(H)           2.880259083347     1.560818082438    -1.265518323387     1.007825032230
      Gh(H)           2.219879083347    -0.829021917562    -1.138228323387     1.007825032230
      Gh(H)          -0.829600916653    -1.858611917562     0.251561676613     1.007825032230
         O           -3.028650916653    -2.392931917562     1.270511676613    15.994914619570
         H           -3.690610916653    -2.808241917562     0.712931676613     1.007825032230
         H           -3.033130916653    -2.917421917562     2.074531676613     1.007825032230

  Charge       = 0
  Multiplicity = 1
  Basis Set: AUG-CC-PVTZ
    Blend: AUG-CC-PVTZ
  Basis Set: (AUG-CC-PVTZ AUX)
    Blend: AUG-CC-PVTZ-JKFIT

    Orbital Energies [Eh]
    ---------------------

    Doubly Occupied:

       1A    -20.567626     2A     -1.352257     3A     -0.715824
       4A     -0.584782     5A     -0.510174

  @DF-RHF Final Energy:   -76.06047473733318

   => Energetics <=

    Nuclear Repulsion Energy =              9.1688642803206406
    One-Electron Energy =                -122.9973483010013524
    Two-Electron Energy =                  37.7680092833475314
    Total Energy =                        -76.0604747373331804

  Dipole Moment: [D]
     X:    -1.1243      Y:    -1.5839      Z:     0.4159     Total:     1.9864

    SAPT Results
  --------------------------------------------------------------------------------------------------------
    Electrostatics                 -6.61861652 [mEh]      -4.15324457 [kcal/mol]     -17.37717528 [kJ/mol]
      Elst10,r                     -7.02448201 [mEh]      -4.40792901 [kcal/mol]     -18.44277498 [kJ/mol]
      Elst12,r                      0.40586549 [mEh]       0.25468444 [kcal/mol]       1.06559970 [kJ/mol]

    Exchange                        2.15299230 [mEh]       1.35102307 [kcal/mol]       5.65268051 [kJ/mol]
      Exch10                        1.72806439 [mEh]       1.08437677 [kcal/mol]       4.53703243 [kJ/mol]
      Exch10(S^2)                   1.72597670 [mEh]       1.08306673 [kcal/mol]       4.53155119 [kJ/mol]
      Exch11(S^2)                  -0.00308626 [mEh]      -0.00193666 [kcal/mol]      -0.00810298 [kJ/mol]
      Exch12(S^2)                   0.42801417 [mEh]       0.26858295 [kcal/mol]       1.12375106 [kJ/mol]

    Induction                      -1.17543282 [mEh]      -0.73759523 [kcal/mol]      -3.08609843 [kJ/mol]
      Ind20,r                      -1.13957926 [mEh]      -0.71509678 [kcal/mol]      -2.99196494 [kJ/mol]
      Ind22                        -0.13039001 [mEh]      -0.08182097 [kcal/mol]      -0.34233893 [kJ/mol]
      Exch-Ind20,r                  0.31558836 [mEh]       0.19803469 [kcal/mol]       0.82857714 [kJ/mol]
      Exch-Ind22                    0.03610944 [mEh]       0.02265902 [kcal/mol]       0.09480533 [kJ/mol]
      delta HF,r (2)               -0.25716135 [mEh]      -0.16137118 [kcal/mol]      -0.67517702 [kJ/mol]

    Dispersion                     -2.05896199 [mEh]      -1.29201816 [kcal/mol]      -5.40580397 [kJ/mol]
      Disp20                       -1.90283276 [mEh]      -1.19404558 [kcal/mol]      -4.99588672 [kJ/mol]
      Disp21                        0.08805496 [mEh]       0.05525532 [kcal/mol]       0.23118826 [kJ/mol]
      Disp22 (SDQ)                 -0.02518770 [mEh]      -0.01580552 [kcal/mol]      -0.06613031 [kJ/mol]
      Disp22 (T)                   -0.33459173 [mEh]      -0.20995948 [kcal/mol]      -0.87847047 [kJ/mol]
      Est. Disp22 (T)              -0.37606812 [mEh]      -0.23598631 [kcal/mol]      -0.98736670 [kJ/mol]
      Exch-Disp20                   0.15707163 [mEh]       0.09856394 [kcal/mol]       0.41239151 [kJ/mol]

  Total HF                         -6.37756987 [mEh]      -4.00198551 [kcal/mol]     -16.74430738 [kJ/mol]
  Total SAPT0                      -8.12333100 [mEh]      -5.09746716 [kcal/mol]     -21.32780259 [kJ/mol]
  Total SAPT2                      -7.38681816 [mEh]      -4.63529838 [kcal/mol]     -19.39408842 [kJ/mol]
  Total SAPT2+                     -7.70001903 [mEh]      -4.83183489 [kcal/mol]     -20.21639717 [kJ/mol]

  Special recipe for scaled SAPT0 (see Manual):
    Electrostatics sSAPT0          -7.02448201 [mEh]      -4.40792901 [kcal/mol]     -18.44277498 [kJ/mol]
    Exchange sSAPT0                 1.72806439 [mEh]       1.08437677 [kcal/mol]       4.53703243 [kJ/mol]
    Induction sSAPT0               -1.08000568 [mEh]      -0.67771379 [kcal/mol]      -2.83555452 [kJ/mol]
    Dispersion sSAPT0              -1.74519047 [mEh]      -1.09512355 [kcal/mol]      -4.58199695 [kJ/mol]
  Total sSAPT0                     -8.12161377 [mEh]      -5.09638958 [kcal/mol]     -21.32329402 [kJ/mol]
  --------------------------------------------------------------------------------------------------------

*** Psi4 exiting successfully. Buy a developer a beer!
