                               Psi4 1.4a2.dev224

  ==> Input File <==

--------------------------------------------------------------------------
#Generated by lconvert.py for sapt job

memory 50 GB

molecule  {
0 1
  N      -2.633040   -1.751090   -0.900110
  C      -2.257810    1.403210    0.733620
  C      -3.533170    1.939620    0.673290
  C      -4.594200    1.239410    0.063730
  C      -4.399330   -0.012760   -0.497990
  C      -3.111740   -0.553790   -0.436830
  C      -2.026320    0.135280    0.173450
  C      -0.882740   -0.707950    0.050800
  C      -1.295590   -1.844200   -0.607820
  H      -1.452020    1.951350    1.204540
  H      -3.723670    2.914690    1.100930
  H      -5.577990    1.687930    0.034150
  H      -5.213370   -0.550690   -0.966000
  H       0.116630   -0.510730    0.399380
  H      -3.177610   -2.454190   -1.380700
  H      -0.735090   -2.718720   -0.892970
--
0 1
  O      -5.251790   -5.045210   -3.168920
  H      -5.803590   -5.723820   -2.774470
  H      -5.468070   -5.075310   -4.103200
units angstrom
no_reorient
symmetry c1
}

set {
scf_type DF
basis aug-cc-pvtz
freeze_core True
guess SAD
}
energy('sapt2+')
--------------------------------------------------------------------------

  //              Dimer HF             //
    Molecular point group: c1
  Charge       = 0
  Multiplicity = 1
  Basis Set: AUG-CC-PVTZ
    Blend: AUG-CC-PVTZ
  Basis Set: (AUG-CC-PVTZ AUX)
    Blend: AUG-CC-PVTZ-JKFIT
  @DF-RHF Final Energy:  -437.65310397093032
    Total Energy =                       -437.6531039709303741
  //            Monomer A HF           //
    Molecular point group: c1
  Multiplicity = 1
  Basis Set: AUG-CC-PVTZ
    Blend: AUG-CC-PVTZ
  Basis Set: (AUG-CC-PVTZ AUX)
    Blend: AUG-CC-PVTZ-JKFIT
  @DF-RHF Final Energy:  -361.59039013387491
    Total Energy =                       -361.5903901338749620
  //            Monomer B HF           //
    Molecular point group: c1

    Geometry (in Angstrom), charge = 0, multiplicity = 1:

       Center              X                  Y                   Z               Mass
    ------------   -----------------  -----------------  -----------------  -----------------
      Gh(N)           0.456957155411    -1.035941316499    -0.389998231230    14.003074004430
      Gh(C)           0.832187155411     2.118358683501     1.243731768770    12.000000000000
      Gh(C)          -0.443172844589     2.654768683501     1.183401768770    12.000000000000
      Gh(C)          -1.504202844589     1.954558683501     0.573841768770    12.000000000000
      Gh(C)          -1.309332844589     0.702388683501     0.012121768770    12.000000000000
      Gh(C)          -0.021742844589     0.161358683501     0.073281768770    12.000000000000
      Gh(C)           1.063677155411     0.850428683501     0.683561768770    12.000000000000
      Gh(C)           2.207257155411     0.007198683501     0.560911768770    12.000000000000
      Gh(C)           1.794407155411    -1.129051316499    -0.097708231230    12.000000000000
      Gh(H)           1.637977155411     2.666498683501     1.714651768770     1.007825032230
      Gh(H)          -0.633672844589     3.629838683501     1.611041768770     1.007825032230
      Gh(H)          -2.487992844589     2.403078683501     0.544261768770     1.007825032230
      Gh(H)          -2.123372844589     0.164458683501    -0.455888231230     1.007825032230
      Gh(H)           3.206627155411     0.204418683501     0.909491768770     1.007825032230
      Gh(H)          -0.087612844589    -1.739041316499    -0.870588231230     1.007825032230
      Gh(H)           2.354907155411    -2.003571316499    -0.382858231230     1.007825032230
         O           -2.161792844589    -4.330061316499    -2.658808231230    15.994914619570
         H           -2.713592844589    -5.008671316499    -2.264358231230     1.007825032230
         H           -2.378072844589    -4.360161316499    -3.593088231230     1.007825032230

  Charge       = 0
  Multiplicity = 1
  Basis Set: AUG-CC-PVTZ
    Blend: AUG-CC-PVTZ
  Basis Set: (AUG-CC-PVTZ AUX)
    Blend: AUG-CC-PVTZ-JKFIT

    Orbital Energies [Eh]
    ---------------------

    Doubly Occupied:

       1A    -20.567662     2A     -1.352554     3A     -0.716390
       4A     -0.584770     5A     -0.510219

  @DF-RHF Final Energy:   -76.06045098614909

   => Energetics <=

    Nuclear Repulsion Energy =              9.1735648937267040
    One-Electron Energy =                -123.0048389155070936
    Two-Electron Energy =                  37.7708230356313024
    Total Energy =                        -76.0604509861490783

  Dipole Moment: [D]
     X:    -1.2976      Y:    -1.1977      Z:    -0.9122     Total:     1.9875

    SAPT Results
  --------------------------------------------------------------------------------------------------------
    Electrostatics                 -2.03583463 [mEh]      -1.27750552 [kcal/mol]      -5.34508309 [kJ/mol]
      Elst10,r                     -2.16998671 [mEh]      -1.36168722 [kcal/mol]      -5.69729933 [kJ/mol]
      Elst12,r                      0.13415208 [mEh]       0.08418170 [kcal/mol]       0.35221624 [kJ/mol]

    Exchange                        0.01503500 [mEh]       0.00943460 [kcal/mol]       0.03947437 [kJ/mol]
      Exch10                        0.01083894 [mEh]       0.00680154 [kcal/mol]       0.02845764 [kJ/mol]
      Exch10(S^2)                   0.01083880 [mEh]       0.00680145 [kcal/mol]       0.02845726 [kJ/mol]
      Exch11(S^2)                  -0.00063469 [mEh]      -0.00039828 [kcal/mol]      -0.00166639 [kJ/mol]
      Exch12(S^2)                   0.00483074 [mEh]       0.00303134 [kcal/mol]       0.01268312 [kJ/mol]

    Induction                      -0.10491328 [mEh]      -0.06583408 [kcal/mol]      -0.27544978 [kJ/mol]
      Ind20,r                      -0.09958005 [mEh]      -0.06248742 [kcal/mol]      -0.26144738 [kJ/mol]
      Ind22                        -0.00122365 [mEh]      -0.00076785 [kcal/mol]      -0.00321269 [kJ/mol]
      Exch-Ind20,r                  0.00109919 [mEh]       0.00068975 [kcal/mol]       0.00288592 [kJ/mol]
      Exch-Ind22                    0.00001351 [mEh]       0.00000848 [kcal/mol]       0.00003546 [kJ/mol]
      delta HF,r (2)               -0.00522228 [mEh]      -0.00327703 [kcal/mol]      -0.01371110 [kJ/mol]

    Dispersion                     -0.26766413 [mEh]      -0.16796178 [kcal/mol]      -0.70275208 [kJ/mol]
      Disp20                       -0.24879045 [mEh]      -0.15611836 [kcal/mol]      -0.65319923 [kJ/mol]
      Disp21                        0.03460027 [mEh]       0.02171200 [kcal/mol]       0.09084301 [kJ/mol]
      Disp22 (SDQ)                 -0.00069603 [mEh]      -0.00043677 [kcal/mol]      -0.00182743 [kJ/mol]
      Disp22 (T)                   -0.05175416 [mEh]      -0.03247623 [kcal/mol]      -0.13588054 [kJ/mol]
      Est. Disp22 (T)              -0.05421713 [mEh]      -0.03402176 [kcal/mol]      -0.14234705 [kJ/mol]
      Exch-Disp20                   0.00143920 [mEh]       0.00090311 [kcal/mol]       0.00377863 [kJ/mol]

  Total HF                         -2.26285091 [mEh]      -1.41996038 [kcal/mol]      -5.94111424 [kJ/mol]
  Total SAPT0                      -2.51020215 [mEh]      -1.57517563 [kcal/mol]      -6.59053484 [kJ/mol]
  Total SAPT2                      -2.37306416 [mEh]      -1.48912024 [kcal/mol]      -6.23047909 [kJ/mol]
  Total SAPT2+                     -2.39337705 [mEh]      -1.50186677 [kcal/mol]      -6.28381057 [kJ/mol]

  Special recipe for scaled SAPT0 (see Manual):
    Electrostatics sSAPT0          -2.16998671 [mEh]      -1.36168722 [kcal/mol]      -5.69729933 [kJ/mol]
    Exchange sSAPT0                 0.01083894 [mEh]       0.00680154 [kcal/mol]       0.02845764 [kJ/mol]
    Induction sSAPT0               -0.10370309 [mEh]      -0.06507467 [kcal/mol]      -0.27227244 [kJ/mol]
    Dispersion sSAPT0              -0.24735119 [mEh]      -0.15521521 [kcal/mol]      -0.64942045 [kJ/mol]
  Total sSAPT0                     -2.51020205 [mEh]      -1.57517557 [kcal/mol]      -6.59053457 [kJ/mol]
  --------------------------------------------------------------------------------------------------------

*** Psi4 exiting successfully. Buy a developer a beer!
