                               Psi4 1.4a2.dev224

  ==> Input File <==

--------------------------------------------------------------------------
#Generated by lconvert.py for sapt job

memory 50 GB

molecule  {
0 1
  N      -2.633040   -1.751090   -0.900110
  C      -2.257810    1.403210    0.733620
  C      -3.533170    1.939620    0.673290
  C      -4.594200    1.239410    0.063730
  C      -4.399330   -0.012760   -0.497990
  C      -3.111740   -0.553790   -0.436830
  C      -2.026320    0.135280    0.173450
  C      -0.882740   -0.707950    0.050800
  C      -1.295590   -1.844200   -0.607820
  H      -1.452020    1.951350    1.204540
  H      -3.723670    2.914690    1.100930
  H      -5.577990    1.687930    0.034150
  H      -5.213370   -0.550690   -0.966000
  H       0.116630   -0.510730    0.399380
  H      -3.177610   -2.454190   -1.380700
  H      -0.735090   -2.718720   -0.892970
--
0 1
  O      -4.924290   -4.636100   -2.886570
  H      -5.476090   -5.314710   -2.492130
  H      -5.140560   -4.666200   -3.820860
units angstrom
no_reorient
symmetry c1
}

set {
scf_type DF
basis aug-cc-pvtz
freeze_core True
guess SAD
}
energy('sapt2+')
--------------------------------------------------------------------------

  //              Dimer HF             //
    Molecular point group: c1
  Charge       = 0
  Multiplicity = 1
  Basis Set: AUG-CC-PVTZ
    Blend: AUG-CC-PVTZ
  Basis Set: (AUG-CC-PVTZ AUX)
    Blend: AUG-CC-PVTZ-JKFIT
  @DF-RHF Final Energy:  -437.65433339047553
    Total Energy =                       -437.6543333904754718
  //            Monomer A HF           //
    Molecular point group: c1
  Multiplicity = 1
  Basis Set: AUG-CC-PVTZ
    Blend: AUG-CC-PVTZ
  Basis Set: (AUG-CC-PVTZ AUX)
    Blend: AUG-CC-PVTZ-JKFIT
  @DF-RHF Final Energy:  -361.59039626288688
    Total Energy =                       -361.5903962628868840
  //            Monomer B HF           //
    Molecular point group: c1

    Geometry (in Angstrom), charge = 0, multiplicity = 1:

       Center              X                  Y                   Z               Mass
    ------------   -----------------  -----------------  -----------------  -----------------
      Gh(N)           0.413286915705    -1.090493686697    -0.427647764786    14.003074004430
      Gh(C)           0.788516915705     2.063806313303     1.206082235214    12.000000000000
      Gh(C)          -0.486843084295     2.600216313303     1.145752235214    12.000000000000
      Gh(C)          -1.547873084295     1.900006313303     0.536192235214    12.000000000000
      Gh(C)          -1.353003084295     0.647836313303    -0.025527764786    12.000000000000
      Gh(C)          -0.065413084295     0.106806313303     0.035632235214    12.000000000000
      Gh(C)           1.020006915705     0.795876313303     0.645912235214    12.000000000000
      Gh(C)           2.163586915705    -0.047353686697     0.523262235214    12.000000000000
      Gh(C)           1.750736915705    -1.183603686697    -0.135357764786    12.000000000000
      Gh(H)           1.594306915705     2.611946313303     1.677002235214     1.007825032230
      Gh(H)          -0.677343084295     3.575286313303     1.573392235214     1.007825032230
      Gh(H)          -2.531663084295     2.348526313303     0.506612235214     1.007825032230
      Gh(H)          -2.167043084295     0.109906313303    -0.493537764786     1.007825032230
      Gh(H)           3.162956915705     0.149866313303     0.871842235214     1.007825032230
      Gh(H)          -0.131283084295    -1.793593686697    -0.908237764786     1.007825032230
      Gh(H)           2.311236915705    -2.058123686697    -0.420507764786     1.007825032230
         O           -1.877963084295    -3.975503686697    -2.414107764786    15.994914619570
         H           -2.429763084295    -4.654113686697    -2.019667764786     1.007825032230
         H           -2.094233084295    -4.005603686697    -3.348397764786     1.007825032230

  Charge       = 0
  Multiplicity = 1
  Basis Set: AUG-CC-PVTZ
    Blend: AUG-CC-PVTZ
  Basis Set: (AUG-CC-PVTZ AUX)
    Blend: AUG-CC-PVTZ-JKFIT

    Orbital Energies [Eh]
    ---------------------

    Doubly Occupied:

       1A    -20.567639     2A     -1.352535     3A     -0.716372
       4A     -0.584764     5A     -0.510201

  @DF-RHF Final Energy:   -76.06046197859669

   => Energetics <=

    Nuclear Repulsion Energy =              9.1735488754536174
    One-Electron Energy =                -123.0049980714709932
    Two-Electron Energy =                  37.7709872174206751
    Total Energy =                        -76.0604619785966918

  Dipole Moment: [D]
     X:    -1.2969      Y:    -1.1974      Z:    -0.9119     Total:     1.9868

    SAPT Results
  --------------------------------------------------------------------------------------------------------
    Electrostatics                 -3.14388012 [mEh]      -1.97281456 [kcal/mol]      -8.25425612 [kJ/mol]
      Elst10,r                     -3.33807379 [mEh]      -2.09467293 [kcal/mol]      -8.76411152 [kJ/mol]
      Elst12,r                      0.19419367 [mEh]       0.12185837 [kcal/mol]       0.50985540 [kJ/mol]

    Exchange                        0.13862930 [mEh]       0.08699120 [kcal/mol]       0.36397119 [kJ/mol]
      Exch10                        0.10703929 [mEh]       0.06716817 [kcal/mol]       0.28103161 [kJ/mol]
      Exch10(S^2)                   0.10702754 [mEh]       0.06716079 [kcal/mol]       0.28100077 [kJ/mol]
      Exch11(S^2)                  -0.00420474 [mEh]      -0.00263851 [kcal/mol]      -0.01103953 [kJ/mol]
      Exch12(S^2)                   0.03579475 [mEh]       0.02246155 [kcal/mol]       0.09397911 [kJ/mol]

    Induction                      -0.25277088 [mEh]      -0.15861612 [kcal/mol]      -0.66364985 [kJ/mol]
      Ind20,r                      -0.23284300 [mEh]      -0.14611119 [kcal/mol]      -0.61132921 [kJ/mol]
      Ind22                        -0.00914187 [mEh]      -0.00573661 [kcal/mol]      -0.02400197 [kJ/mol]
      Exch-Ind20,r                  0.01236520 [mEh]       0.00775928 [kcal/mol]       0.03246483 [kJ/mol]
      Exch-Ind22                    0.00048548 [mEh]       0.00030464 [kcal/mol]       0.00127463 [kJ/mol]
      delta HF,r (2)               -0.02363670 [mEh]      -0.01483225 [kcal/mol]      -0.06205813 [kJ/mol]

    Dispersion                     -0.59586306 [mEh]      -0.37390972 [kcal/mol]      -1.56443825 [kJ/mol]
      Disp20                       -0.54806161 [mEh]      -0.34391385 [kcal/mol]      -1.43893555 [kJ/mol]
      Disp21                        0.05778725 [mEh]       0.03626205 [kcal/mol]       0.15172042 [kJ/mol]
      Disp22 (SDQ)                 -0.00094256 [mEh]      -0.00059147 [kcal/mol]      -0.00247469 [kJ/mol]
      Disp22 (T)                   -0.10917294 [mEh]      -0.06850706 [kcal/mol]      -0.28663352 [kJ/mol]
      Est. Disp22 (T)              -0.11649653 [mEh]      -0.07310268 [kcal/mol]      -0.30586160 [kJ/mol]
      Exch-Disp20                   0.01185038 [mEh]       0.00743623 [kcal/mol]       0.03111317 [kJ/mol]

  Total HF                         -3.47514899 [mEh]      -2.18068892 [kcal/mol]      -9.12400242 [kJ/mol]
  Total SAPT0                      -4.01136022 [mEh]      -2.51716654 [kcal/mol]     -10.53182480 [kJ/mol]
  Total SAPT2                      -3.79423292 [mEh]      -2.38091710 [kcal/mol]      -9.96175716 [kJ/mol]
  Total SAPT2+                     -3.85388476 [mEh]      -2.41834920 [kcal/mol]     -10.11837303 [kJ/mol]

  Special recipe for scaled SAPT0 (see Manual):
    Electrostatics sSAPT0          -3.33807379 [mEh]      -2.09467293 [kcal/mol]      -8.76411152 [kJ/mol]
    Exchange sSAPT0                 0.10703929 [mEh]       0.06716817 [kcal/mol]       0.28103161 [kJ/mol]
    Induction sSAPT0               -0.24411042 [mEh]      -0.15318160 [kcal/mol]      -0.64091182 [kJ/mol]
    Dispersion sSAPT0              -0.53620732 [mEh]      -0.33647517 [kcal/mol]      -1.40781213 [kJ/mol]
  Total sSAPT0                     -4.01135224 [mEh]      -2.51716153 [kcal/mol]     -10.53180386 [kJ/mol]
  --------------------------------------------------------------------------------------------------------

*** Psi4 exiting successfully. Buy a developer a beer!
