                               Psi4 1.4a2.dev224

  ==> Input File <==

--------------------------------------------------------------------------
#Generated by lconvert.py for sapt job

memory 50 GB

molecule  {
0 1
  N      -2.633040   -1.751090   -0.900110
  C      -2.257810    1.403210    0.733620
  C      -3.533170    1.939620    0.673290
  C      -4.594200    1.239410    0.063730
  C      -4.399330   -0.012760   -0.497990
  C      -3.111740   -0.553790   -0.436830
  C      -2.026320    0.135280    0.173450
  C      -0.882740   -0.707950    0.050800
  C      -1.295590   -1.844200   -0.607820
  H      -1.452020    1.951350    1.204540
  H      -3.723670    2.914690    1.100930
  H      -5.577990    1.687930    0.034150
  H      -5.213370   -0.550690   -0.966000
  H       0.116630   -0.510730    0.399380
  H      -3.177610   -2.454190   -1.380700
  H      -0.735090   -2.718720   -0.892970
--
0 1
  O      -4.596790   -4.226990   -2.604220
  H      -5.148590   -4.905600   -2.209780
  H      -4.813060   -4.257090   -3.538510
units angstrom
no_reorient
symmetry c1
}

set {
scf_type DF
basis aug-cc-pvtz
freeze_core True
guess SAD
}
energy('sapt2+')
--------------------------------------------------------------------------

  //              Dimer HF             //
    Molecular point group: c1
  Charge       = 0
  Multiplicity = 1
  Basis Set: AUG-CC-PVTZ
    Blend: AUG-CC-PVTZ
  Basis Set: (AUG-CC-PVTZ AUX)
    Blend: AUG-CC-PVTZ-JKFIT
  @DF-RHF Final Energy:  -437.65634745276282
    Total Energy =                       -437.6563474527628159
  //            Monomer A HF           //
    Molecular point group: c1
  Multiplicity = 1
  Basis Set: AUG-CC-PVTZ
    Blend: AUG-CC-PVTZ
  Basis Set: (AUG-CC-PVTZ AUX)
    Blend: AUG-CC-PVTZ-JKFIT
  @DF-RHF Final Energy:  -361.59042396781683
    Total Energy =                       -361.5904239678168324
  //            Monomer B HF           //
    Molecular point group: c1

    Geometry (in Angstrom), charge = 0, multiplicity = 1:

       Center              X                  Y                   Z               Mass
    ------------   -----------------  -----------------  -----------------  -----------------
      Gh(N)           0.369616750615    -1.145046056895    -0.465297447574    14.003074004430
      Gh(C)           0.744846750615     2.009253943105     1.168432552426    12.000000000000
      Gh(C)          -0.530513249385     2.545663943105     1.108102552426    12.000000000000
      Gh(C)          -1.591543249385     1.845453943105     0.498542552426    12.000000000000
      Gh(C)          -1.396673249385     0.593283943105    -0.063177447574    12.000000000000
      Gh(C)          -0.109083249385     0.052253943105    -0.002017447574    12.000000000000
      Gh(C)           0.976336750615     0.741323943105     0.608262552426    12.000000000000
      Gh(C)           2.119916750615    -0.101906056895     0.485612552426    12.000000000000
      Gh(C)           1.707066750615    -1.238156056895    -0.173007447574    12.000000000000
      Gh(H)           1.550636750615     2.557393943105     1.639352552426     1.007825032230
      Gh(H)          -0.721013249385     3.520733943105     1.535742552426     1.007825032230
      Gh(H)          -2.575333249385     2.293973943105     0.468962552426     1.007825032230
      Gh(H)          -2.210713249385     0.055353943105    -0.531187447574     1.007825032230
      Gh(H)           3.119286750615     0.095313943105     0.834192552426     1.007825032230
      Gh(H)          -0.174953249385    -1.848146056895    -0.945887447574     1.007825032230
      Gh(H)           2.267566750615    -2.112676056895    -0.458157447574     1.007825032230
         O           -1.594133249385    -3.620946056895    -2.169407447574    15.994914619570
         H           -2.145933249385    -4.299556056895    -1.774967447574     1.007825032230
         H           -1.810403249385    -3.651046056895    -3.103697447574     1.007825032230

  Charge       = 0
  Multiplicity = 1
  Basis Set: AUG-CC-PVTZ
    Blend: AUG-CC-PVTZ
  Basis Set: (AUG-CC-PVTZ AUX)
    Blend: AUG-CC-PVTZ-JKFIT

    Orbital Energies [Eh]
    ---------------------

    Doubly Occupied:

       1A    -20.567567     2A     -1.352488     3A     -0.716328
       4A     -0.584739     5A     -0.510169

  @DF-RHF Final Energy:   -76.06049675696215

   => Energetics <=

    Nuclear Repulsion Energy =              9.1735488754536139
    One-Electron Energy =                -123.0055072809464605
    Two-Electron Energy =                  37.7714616485306962
    Total Energy =                        -76.0604967569621522

  Dipole Moment: [D]
     X:    -1.2960      Y:    -1.1965      Z:    -0.9112     Total:     1.9853

    SAPT Results
  --------------------------------------------------------------------------------------------------------
    Electrostatics                 -5.44373908 [mEh]      -3.41599785 [kcal/mol]     -14.29253499 [kJ/mol]
      Elst10,r                     -5.70706391 [mEh]      -3.58123667 [kcal/mol]     -14.98389424 [kJ/mol]
      Elst12,r                      0.26332483 [mEh]       0.16523883 [kcal/mol]       0.69135925 [kJ/mol]

    Exchange                        1.24875528 [mEh]       0.78360577 [kcal/mol]       3.27860654 [kJ/mol]
      Exch10                        1.03063601 [mEh]       0.64673386 [kcal/mol]       2.70593446 [kJ/mol]
      Exch10(S^2)                   1.02974342 [mEh]       0.64617375 [kcal/mol]       2.70359098 [kJ/mol]
      Exch11(S^2)                  -0.02096578 [mEh]      -0.01315623 [kcal/mol]      -0.05504565 [kJ/mol]
      Exch12(S^2)                   0.23908506 [mEh]       0.15002814 [kcal/mol]       0.62771773 [kJ/mol]

    Induction                      -0.80274550 [mEh]      -0.50373040 [kcal/mol]      -2.10760801 [kJ/mol]
      Ind20,r                      -0.74018392 [mEh]      -0.46447242 [kcal/mol]      -1.94335262 [kJ/mol]
      Ind22                        -0.06590247 [mEh]      -0.04135442 [kcal/mol]      -0.17302691 [kJ/mol]
      Exch-Ind20,r                  0.15114290 [mEh]       0.09484360 [kcal/mol]       0.39682563 [kJ/mol]
      Exch-Ind22                    0.01345705 [mEh]       0.00844442 [kcal/mol]       0.03533147 [kJ/mol]
      delta HF,r (2)               -0.16125905 [mEh]      -0.10119158 [kcal/mol]      -0.42338559 [kJ/mol]

    Dispersion                     -1.52279764 [mEh]      -0.95556994 [kcal/mol]      -3.99810465 [kJ/mol]
      Disp20                       -1.43391251 [mEh]      -0.89979368 [kcal/mol]      -3.76473678 [kJ/mol]
      Disp21                        0.10345594 [mEh]       0.06491959 [kcal/mol]       0.27162354 [kJ/mol]
      Disp22 (SDQ)                  0.00158831 [mEh]       0.00099668 [kcal/mol]       0.00417012 [kJ/mol]
      Disp22 (T)                   -0.25868012 [mEh]      -0.16232423 [kcal/mol]      -0.67916456 [kJ/mol]
      Est. Disp22 (T)              -0.28687165 [mEh]      -0.18001468 [kcal/mol]      -0.75318142 [kJ/mol]
      Exch-Disp20                   0.09294227 [mEh]       0.05832215 [kcal/mol]       0.24401989 [kJ/mol]

  Total HF                         -5.42672798 [mEh]      -3.40532322 [kcal/mol]     -14.24787236 [kJ/mol]
  Total SAPT0                      -6.76769823 [mEh]      -4.24679475 [kcal/mol]     -17.76858924 [kJ/mol]
  Total SAPT2                      -6.33869954 [mEh]      -3.97759401 [kcal/mol]     -16.64225334 [kJ/mol]
  Total SAPT2+                     -6.52052693 [mEh]      -4.09169242 [kcal/mol]     -17.11964110 [kJ/mol]

  Special recipe for scaled SAPT0 (see Manual):
    Electrostatics sSAPT0          -5.70706391 [mEh]      -3.58123667 [kcal/mol]     -14.98389424 [kJ/mol]
    Exchange sSAPT0                 1.03063601 [mEh]       0.64673386 [kcal/mol]       2.70593446 [kJ/mol]
    Induction sSAPT0               -0.74990670 [mEh]      -0.47057356 [kcal/mol]      -1.96887977 [kJ/mol]
    Dispersion sSAPT0              -1.34072834 [mEh]      -0.84131974 [kcal/mol]      -3.52008178 [kJ/mol]
  Total sSAPT0                     -6.76706295 [mEh]      -4.24639611 [kcal/mol]     -17.76692134 [kJ/mol]
  --------------------------------------------------------------------------------------------------------

*** Psi4 exiting successfully. Buy a developer a beer!
