                               Psi4 1.4a2.dev224

  ==> Input File <==

--------------------------------------------------------------------------
#Generated by lconvert.py for sapt job

memory 50 GB

molecule  {
0 1
  C       1.952940   -0.000020    0.000020
  H       2.317650   -0.471620    0.907560
  H       2.317720   -0.550420   -0.861990
  H       2.320030    1.020920   -0.045480
  H       0.867410    0.001600   -0.000090
--
0 1
  O      -2.105650    0.000190   -0.000110
  H      -2.701260    0.752060    0.000380
  H      -2.696800   -0.755200    0.000380
units angstrom
no_reorient
symmetry c1
}

set {
scf_type DF
basis aug-cc-pvtz
freeze_core True
guess SAD
}
energy('sapt2+')
--------------------------------------------------------------------------

  //              Dimer HF             //
    Molecular point group: c1
  Charge       = 0
  Multiplicity = 1
  Basis Set: AUG-CC-PVTZ
    Blend: AUG-CC-PVTZ
  Basis Set: (AUG-CC-PVTZ AUX)
    Blend: AUG-CC-PVTZ-JKFIT
  @DF-RHF Final Energy:  -116.27434753367694
    Total Energy =                       -116.2743475336769450
  //            Monomer A HF           //
    Molecular point group: c1
  Multiplicity = 1
  Basis Set: AUG-CC-PVTZ
    Blend: AUG-CC-PVTZ
  Basis Set: (AUG-CC-PVTZ AUX)
    Blend: AUG-CC-PVTZ-JKFIT
  @DF-RHF Final Energy:   -40.21367017776107
    Total Energy =                        -40.2136701777610739
  //            Monomer B HF           //
    Molecular point group: c1

    Geometry (in Angstrom), charge = 0, multiplicity = 1:

       Center              X                  Y                   Z               Mass
    ------------   -----------------  -----------------  -----------------  -----------------
      Gh(C)           2.182089850182    -0.000023472759     0.000042134322    12.000000000000
      Gh(H)           2.546799850182    -0.471623472759     0.907582134322     1.007825032230
      Gh(H)           2.546869850182    -0.550423472759    -0.861967865678     1.007825032230
      Gh(H)           2.549179850182     1.020916527241    -0.045457865678     1.007825032230
      Gh(H)           1.096559850182     0.001596527241    -0.000067865678     1.007825032230
         O           -1.876500149818     0.000186527241    -0.000087865678    15.994914619570
         H           -2.472110149818     0.752056527241     0.000402134322     1.007825032230
         H           -2.467650149818    -0.755203472759     0.000402134322     1.007825032230

  Charge       = 0
  Multiplicity = 1
  Basis Set: AUG-CC-PVTZ
    Blend: AUG-CC-PVTZ
  Basis Set: (AUG-CC-PVTZ AUX)
    Blend: AUG-CC-PVTZ-JKFIT

    Orbital Energies [Eh]
    ---------------------

    Doubly Occupied:

       1A    -20.567949     2A     -1.353265     3A     -0.714918
       4A     -0.586423     5A     -0.510459

  @DF-RHF Final Energy:   -76.06040344861736

   => Energetics <=

    Nuclear Repulsion Energy =              9.1780519873720827
    One-Electron Energy =                -123.0108797713705400
    Two-Electron Energy =                  37.7724243353810891
    Total Energy =                        -76.0604034486173646

  Dipole Moment: [D]
     X:    -2.0000      Y:    -0.0059      Z:     0.0017     Total:     2.0000

    SAPT Results
  --------------------------------------------------------------------------------------------------------
    Electrostatics                 -0.53409245 [mEh]      -0.33514807 [kcal/mol]      -1.40225953 [kJ/mol]
      Elst10,r                     -0.51728426 [mEh]      -0.32460077 [kcal/mol]      -1.35812963 [kJ/mol]
      Elst12,r                     -0.01680819 [mEh]      -0.01054730 [kcal/mol]      -0.04412990 [kJ/mol]

    Exchange                        0.49812313 [mEh]       0.31257698 [kcal/mol]       1.30782210 [kJ/mol]
      Exch10                        0.43589022 [mEh]       0.27352524 [kcal/mol]       1.14442962 [kJ/mol]
      Exch10(S^2)                   0.43570790 [mEh]       0.27341084 [kcal/mol]       1.14395094 [kJ/mol]
      Exch11(S^2)                  -0.00674255 [mEh]      -0.00423102 [kcal/mol]      -0.01770257 [kJ/mol]
      Exch12(S^2)                   0.06897546 [mEh]       0.04328275 [kcal/mol]       0.18109505 [kJ/mol]

    Induction                      -0.18921211 [mEh]      -0.11873239 [kcal/mol]      -0.49677634 [kJ/mol]
      Ind20,r                      -0.20893005 [mEh]      -0.13110559 [kcal/mol]      -0.54854578 [kJ/mol]
      Ind22                         0.00431977 [mEh]       0.00271070 [kcal/mol]       0.01134156 [kJ/mol]
      Exch-Ind20,r                  0.04926686 [mEh]       0.03091542 [kcal/mol]       0.12935012 [kJ/mol]
      Exch-Ind22                   -0.00101863 [mEh]      -0.00063920 [kcal/mol]      -0.00267440 [kJ/mol]
      delta HF,r (2)               -0.03285007 [mEh]      -0.02061373 [kcal/mol]      -0.08624784 [kJ/mol]

    Dispersion                     -0.69475413 [mEh]      -0.43596480 [kcal/mol]      -1.82407671 [kJ/mol]
      Disp20                       -0.65015927 [mEh]      -0.40798110 [kcal/mol]      -1.70699293 [kJ/mol]
      Disp21                       -0.00541720 [mEh]      -0.00339935 [kcal/mol]      -0.01422286 [kJ/mol]
      Disp22 (SDQ)                  0.01669077 [mEh]       0.01047362 [kcal/mol]       0.04382162 [kJ/mol]
      Disp22 (T)                   -0.08767398 [mEh]      -0.05501625 [kcal/mol]      -0.23018800 [kJ/mol]
      Est. Disp22 (T)              -0.10090015 [mEh]      -0.06331580 [kcal/mol]      -0.26491331 [kJ/mol]
      Exch-Disp20                   0.04503172 [mEh]       0.02825783 [kcal/mol]       0.11823077 [kJ/mol]

  Total HF                         -0.27390730 [mEh]      -0.17187942 [kcal/mol]      -0.71914351 [kJ/mol]
  Total SAPT0                      -0.87903485 [mEh]      -0.55160269 [kcal/mol]      -2.30790568 [kJ/mol]
  Total SAPT2                      -0.83030898 [mEh]      -0.52102675 [kcal/mol]      -2.17997594 [kJ/mol]
  Total SAPT2+                     -0.91993556 [mEh]      -0.57726828 [kcal/mol]      -2.41529049 [kJ/mol]

  Special recipe for scaled SAPT0 (see Manual):
    Electrostatics sSAPT0          -0.51728426 [mEh]      -0.32460077 [kcal/mol]      -1.35812963 [kJ/mol]
    Exchange sSAPT0                 0.43589022 [mEh]       0.27352524 [kcal/mol]       1.14442962 [kJ/mol]
    Induction sSAPT0               -0.19245139 [mEh]      -0.12076507 [kcal/mol]      -0.50528105 [kJ/mol]
    Dispersion sSAPT0              -0.60507100 [mEh]      -0.37968778 [kcal/mol]      -1.58861368 [kJ/mol]
  Total sSAPT0                     -0.87891642 [mEh]      -0.55152838 [kcal/mol]      -2.30759475 [kJ/mol]
  --------------------------------------------------------------------------------------------------------

*** Psi4 exiting successfully. Buy a developer a beer!
