                               Psi4 1.4a2.dev224

  ==> Input File <==

--------------------------------------------------------------------------
#Generated by lconvert.py for sapt job

memory 50 GB

molecule  {
0 1
  C       1.952940   -0.000020    0.000020
  H       2.317650   -0.471620    0.907560
  H       2.317720   -0.550420   -0.861990
  H       2.320030    1.020920   -0.045480
  H       0.867410    0.001600   -0.000090
--
0 1
  O      -4.267870   -0.000840   -0.000130
  H      -4.863480    0.751030    0.000360
  H      -4.859020   -0.756220    0.000360
units angstrom
no_reorient
symmetry c1
}

set {
scf_type DF
basis aug-cc-pvtz
freeze_core True
guess SAD
}
energy('sapt2+')
--------------------------------------------------------------------------

  //              Dimer HF             //
    Molecular point group: c1
  Charge       = 0
  Multiplicity = 1
  Basis Set: AUG-CC-PVTZ
    Blend: AUG-CC-PVTZ
  Basis Set: (AUG-CC-PVTZ AUX)
    Blend: AUG-CC-PVTZ-JKFIT
  @DF-RHF Final Energy:  -116.27410627823227
    Total Energy =                       -116.2741062782322672
  //            Monomer A HF           //
    Molecular point group: c1
  Multiplicity = 1
  Basis Set: AUG-CC-PVTZ
    Blend: AUG-CC-PVTZ
  Basis Set: (AUG-CC-PVTZ AUX)
    Blend: AUG-CC-PVTZ-JKFIT
  @DF-RHF Final Energy:   -40.21366324250614
    Total Energy =                        -40.2136632425061435
  //            Monomer B HF           //
    Molecular point group: c1

    Geometry (in Angstrom), charge = 0, multiplicity = 1:

       Center              X                  Y                   Z               Mass
    ------------   -----------------  -----------------  -----------------  -----------------
      Gh(C)           3.326057825646     0.000521174354     0.000052715742    12.000000000000
      Gh(H)           3.690767825646    -0.471078825646     0.907592715742     1.007825032230
      Gh(H)           3.690837825646    -0.549878825646    -0.861957284258     1.007825032230
      Gh(H)           3.693147825646     1.021461174354    -0.045447284258     1.007825032230
      Gh(H)           2.240527825646     0.002141174354    -0.000057284258     1.007825032230
         O           -2.894752174354    -0.000298825646    -0.000097284258    15.994914619570
         H           -3.490362174354     0.751571174354     0.000392715742     1.007825032230
         H           -3.485902174354    -0.755678825646     0.000392715742     1.007825032230

  Charge       = 0
  Multiplicity = 1
  Basis Set: AUG-CC-PVTZ
    Blend: AUG-CC-PVTZ
  Basis Set: (AUG-CC-PVTZ AUX)
    Blend: AUG-CC-PVTZ-JKFIT

    Orbital Energies [Eh]
    ---------------------

    Doubly Occupied:

       1A    -20.567961     2A     -1.353281     3A     -0.714932
       4A     -0.586427     5A     -0.510478

  @DF-RHF Final Energy:   -76.06038943383071

   => Energetics <=

    Nuclear Repulsion Energy =              9.1780905519373892
    One-Electron Energy =                -123.0108009128742879
    Two-Electron Energy =                  37.7723209271062004
    Total Energy =                        -76.0603894338306930

  Dipole Moment: [D]
     X:    -2.0000      Y:    -0.0059      Z:     0.0017     Total:     2.0000

    SAPT Results
  --------------------------------------------------------------------------------------------------------
    Electrostatics                 -0.04354795 [mEh]      -0.02732675 [kcal/mol]      -0.11433513 [kJ/mol]
      Elst10,r                     -0.04423944 [mEh]      -0.02776067 [kcal/mol]      -0.11615064 [kJ/mol]
      Elst12,r                      0.00069149 [mEh]       0.00043392 [kcal/mol]       0.00181551 [kJ/mol]

    Exchange                        0.00018721 [mEh]       0.00011748 [kcal/mol]       0.00049153 [kJ/mol]
      Exch10                        0.00014287 [mEh]       0.00008965 [kcal/mol]       0.00037511 [kJ/mol]
      Exch10(S^2)                   0.00014287 [mEh]       0.00008965 [kcal/mol]       0.00037511 [kJ/mol]
      Exch11(S^2)                  -0.00001066 [mEh]      -0.00000669 [kcal/mol]      -0.00002798 [kJ/mol]
      Exch12(S^2)                   0.00005500 [mEh]       0.00003451 [kcal/mol]       0.00014439 [kJ/mol]

    Induction                      -0.00865519 [mEh]      -0.00543121 [kcal/mol]      -0.02272420 [kJ/mol]
      Ind20,r                      -0.00955638 [mEh]      -0.00599672 [kcal/mol]      -0.02509027 [kJ/mol]
      Ind22                         0.00085076 [mEh]       0.00053386 [kcal/mol]       0.00223366 [kJ/mol]
      Exch-Ind20,r                  0.00000698 [mEh]       0.00000438 [kcal/mol]       0.00001832 [kJ/mol]
      Exch-Ind22                   -0.00000062 [mEh]      -0.00000039 [kcal/mol]      -0.00000163 [kJ/mol]
      delta HF,r (2)                0.00004407 [mEh]       0.00002766 [kcal/mol]       0.00011572 [kJ/mol]

    Dispersion                     -0.03417605 [mEh]      -0.02144580 [kcal/mol]      -0.08972921 [kJ/mol]
      Disp20                       -0.03118788 [mEh]      -0.01957069 [kcal/mol]      -0.08188378 [kJ/mol]
      Disp21                        0.00108551 [mEh]       0.00068117 [kcal/mol]       0.00285001 [kJ/mol]
      Disp22 (SDQ)                  0.00097760 [mEh]       0.00061345 [kcal/mol]       0.00256668 [kJ/mol]
      Disp22 (T)                   -0.00486215 [mEh]      -0.00305104 [kcal/mol]      -0.01276557 [kJ/mol]
      Est. Disp22 (T)              -0.00507480 [mEh]      -0.00318448 [kcal/mol]      -0.01332388 [kJ/mol]
      Exch-Disp20                   0.00002352 [mEh]       0.00001476 [kcal/mol]       0.00006174 [kJ/mol]

  Total HF                         -0.05360190 [mEh]      -0.03363570 [kcal/mol]      -0.14073176 [kJ/mol]
  Total SAPT0                      -0.08476626 [mEh]      -0.05319163 [kcal/mol]      -0.22255379 [kJ/mol]
  Total SAPT2                      -0.08318029 [mEh]      -0.05219642 [kcal/mol]      -0.21838983 [kJ/mol]
  Total SAPT2+                     -0.08619198 [mEh]      -0.05408628 [kcal/mol]      -0.22629701 [kJ/mol]

  Special recipe for scaled SAPT0 (see Manual):
    Electrostatics sSAPT0          -0.04423944 [mEh]      -0.02776067 [kcal/mol]      -0.11615064 [kJ/mol]
    Exchange sSAPT0                 0.00014287 [mEh]       0.00008965 [kcal/mol]       0.00037511 [kJ/mol]
    Induction sSAPT0               -0.00950533 [mEh]      -0.00596468 [kcal/mol]      -0.02495623 [kJ/mol]
    Dispersion sSAPT0              -0.03116437 [mEh]      -0.01955593 [kcal/mol]      -0.08182203 [kJ/mol]
  Total sSAPT0                     -0.08476626 [mEh]      -0.05319163 [kcal/mol]      -0.22255379 [kJ/mol]
  --------------------------------------------------------------------------------------------------------

*** Psi4 exiting successfully. Buy a developer a beer!
