                               Psi4 1.4a2.dev224

  ==> Input File <==

--------------------------------------------------------------------------
#Generated by lconvert.py for sapt job

memory 50 GB

molecule  {
0 1
  C       1.952940   -0.000020    0.000020
  H       2.317650   -0.471620    0.907560
  H       2.317720   -0.550420   -0.861990
  H       2.320030    1.020920   -0.045480
  H       0.867410    0.001600   -0.000090
--
0 1
  O      -1.835370    0.000310   -0.000110
  H      -2.430990    0.752180    0.000380
  H      -2.426520   -0.755070    0.000380
units angstrom
no_reorient
symmetry c1
}

set {
scf_type DF
basis aug-cc-pvtz
freeze_core True
guess SAD
}
energy('sapt2+')
--------------------------------------------------------------------------

  //              Dimer HF             //
    Molecular point group: c1
  Charge       = 0
  Multiplicity = 1
  Basis Set: AUG-CC-PVTZ
    Blend: AUG-CC-PVTZ
  Basis Set: (AUG-CC-PVTZ AUX)
    Blend: AUG-CC-PVTZ-JKFIT
  @DF-RHF Final Energy:  -116.27418412074583
    Total Energy =                       -116.2741841207458293
  //            Monomer A HF           //
    Molecular point group: c1
  Multiplicity = 1
  Basis Set: AUG-CC-PVTZ
    Blend: AUG-CC-PVTZ
  Basis Set: (AUG-CC-PVTZ AUX)
    Blend: AUG-CC-PVTZ-JKFIT
  @DF-RHF Final Energy:   -40.21367353595630
    Total Energy =                        -40.2136735359563033
  //            Monomer B HF           //
    Molecular point group: c1

    Geometry (in Angstrom), charge = 0, multiplicity = 1:

       Center              X                  Y                   Z               Mass
    ------------   -----------------  -----------------  -----------------  -----------------
      Gh(C)           2.039092826626    -0.000087257338     0.000042134322    12.000000000000
      Gh(H)           2.403802826626    -0.471687257338     0.907582134322     1.007825032230
      Gh(H)           2.403872826626    -0.550487257338    -0.861967865678     1.007825032230
      Gh(H)           2.406182826626     1.020852742662    -0.045457865678     1.007825032230
      Gh(H)           0.953562826626     0.001532742662    -0.000067865678     1.007825032230
         O           -1.749217173374     0.000242742662    -0.000087865678    15.994914619570
         H           -2.344837173374     0.752112742662     0.000402134322     1.007825032230
         H           -2.340367173374    -0.755137257338     0.000402134322     1.007825032230

  Charge       = 0
  Multiplicity = 1
  Basis Set: AUG-CC-PVTZ
    Blend: AUG-CC-PVTZ
  Basis Set: (AUG-CC-PVTZ AUX)
    Blend: AUG-CC-PVTZ-JKFIT

    Orbital Energies [Eh]
    ---------------------

    Doubly Occupied:

       1A    -20.567928     2A     -1.353250     3A     -0.714902
       4A     -0.586421     5A     -0.510444

  @DF-RHF Final Energy:   -76.06041626314985

   => Energetics <=

    Nuclear Repulsion Energy =              9.1780619738492764
    One-Electron Energy =                -123.0110626738680679
    Two-Electron Energy =                  37.7725844368689323
    Total Energy =                        -76.0604162631498468

  Dipole Moment: [D]
     X:    -1.9996      Y:    -0.0059      Z:     0.0016     Total:     1.9996

    SAPT Results
  --------------------------------------------------------------------------------------------------------
    Electrostatics                 -0.94945992 [mEh]      -0.59579509 [kcal/mol]      -2.49280667 [kJ/mol]
      Elst10,r                     -0.90598387 [mEh]      -0.56851346 [kcal/mol]      -2.37866031 [kJ/mol]
      Elst12,r                     -0.04347605 [mEh]      -0.02728163 [kcal/mol]      -0.11414636 [kJ/mol]

    Exchange                        1.30429084 [mEh]       0.81845486 [kcal/mol]       3.42441512 [kJ/mol]
      Exch10                        1.16217458 [mEh]       0.72927556 [kcal/mol]       3.05128895 [kJ/mol]
      Exch10(S^2)                   1.16097336 [mEh]       0.72852178 [kcal/mol]       3.04813513 [kJ/mol]
      Exch11(S^2)                  -0.00970003 [mEh]      -0.00608686 [kcal/mol]      -0.02546741 [kJ/mol]
      Exch12(S^2)                   0.15181628 [mEh]       0.09526615 [kcal/mol]       0.39859358 [kJ/mol]

    Induction                      -0.35307270 [mEh]      -0.22155647 [kcal/mol]      -0.92699225 [kJ/mol]
      Ind20,r                      -0.41218855 [mEh]      -0.25865222 [kcal/mol]      -1.08220088 [kJ/mol]
      Ind22                        -0.00414379 [mEh]      -0.00260026 [kcal/mol]      -0.01087951 [kJ/mol]
      Exch-Ind20,r                  0.15750707 [mEh]       0.09883718 [kcal/mol]       0.41353475 [kJ/mol]
      Exch-Ind22                    0.00158344 [mEh]       0.00099362 [kcal/mol]       0.00415732 [kJ/mol]
      delta HF,r (2)               -0.09583088 [mEh]      -0.06013478 [kcal/mol]      -0.25160393 [kJ/mol]

    Dispersion                     -1.13184478 [mEh]      -0.71024332 [kcal/mol]      -2.97165806 [kJ/mol]
      Disp20                       -1.09565594 [mEh]      -0.68753448 [kcal/mol]      -2.87664428 [kJ/mol]
      Disp21                       -0.00861946 [mEh]      -0.00540879 [kcal/mol]      -0.02263038 [kJ/mol]
      Disp22 (SDQ)                  0.02854107 [mEh]       0.01790979 [kcal/mol]       0.07493456 [kJ/mol]
      Disp22 (T)                   -0.14370969 [mEh]      -0.09017919 [kcal/mol]      -0.37730973 [kJ/mol]
      Est. Disp22 (T)              -0.16612022 [mEh]      -0.10424201 [kcal/mol]      -0.43614859 [kJ/mol]
      Exch-Disp20                   0.11000978 [mEh]       0.06903218 [kcal/mol]       0.28883063 [kJ/mol]

  Total HF                         -0.09432164 [mEh]      -0.05918772 [kcal/mol]      -0.24764143 [kJ/mol]
  Total SAPT0                      -1.07996780 [mEh]      -0.67769003 [kcal/mol]      -2.83545508 [kJ/mol]
  Total SAPT2                      -0.98388795 [mEh]      -0.61739901 [kcal/mol]      -2.58319745 [kJ/mol]
  Total SAPT2+                     -1.13008656 [mEh]      -0.70914002 [kcal/mol]      -2.96704186 [kJ/mol]

  Special recipe for scaled SAPT0 (see Manual):
    Electrostatics sSAPT0          -0.90598387 [mEh]      -0.56851346 [kcal/mol]      -2.37866031 [kJ/mol]
    Exchange sSAPT0                 1.16217458 [mEh]       0.72927556 [kcal/mol]       3.05128895 [kJ/mol]
    Induction sSAPT0               -0.35002295 [mEh]      -0.21964271 [kcal/mol]      -0.91898512 [kJ/mol]
    Dispersion sSAPT0              -0.98530434 [mEh]      -0.61828781 [kcal/mol]      -2.58691619 [kJ/mol]
  Total sSAPT0                     -1.07913657 [mEh]      -0.67716842 [kcal/mol]      -2.83327267 [kJ/mol]
  --------------------------------------------------------------------------------------------------------

*** Psi4 exiting successfully. Buy a developer a beer!
