                               Psi4 1.4a2.dev224

  ==> Input File <==

--------------------------------------------------------------------------
#Generated by lconvert.py for sapt job

memory 50 GB

molecule  {
0 1
  C       1.952940   -0.000020    0.000020
  H       2.317650   -0.471620    0.907560
  H       2.317720   -0.550420   -0.861990
  H       2.320030    1.020920   -0.045480
  H       0.867410    0.001600   -0.000090
--
0 1
  O      -1.970510    0.000250   -0.000110
  H      -2.566120    0.752120    0.000380
  H      -2.561660   -0.755130    0.000380
units angstrom
no_reorient
symmetry c1
}

set {
scf_type DF
basis aug-cc-pvtz
freeze_core True
guess SAD
}
energy('sapt2+')
--------------------------------------------------------------------------

  //              Dimer HF             //
    Molecular point group: c1
  Charge       = 0
  Multiplicity = 1
  Basis Set: AUG-CC-PVTZ
    Blend: AUG-CC-PVTZ
  Basis Set: (AUG-CC-PVTZ AUX)
    Blend: AUG-CC-PVTZ-JKFIT
  @DF-RHF Final Energy:  -116.27430146502114
    Total Energy =                       -116.2743014650211393
  //            Monomer A HF           //
    Molecular point group: c1
  Multiplicity = 1
  Basis Set: AUG-CC-PVTZ
    Blend: AUG-CC-PVTZ
  Basis Set: (AUG-CC-PVTZ AUX)
    Blend: AUG-CC-PVTZ-JKFIT
  @DF-RHF Final Energy:   -40.21367179264281
    Total Energy =                        -40.2136717926428133
  //            Monomer B HF           //
    Molecular point group: c1

    Geometry (in Angstrom), charge = 0, multiplicity = 1:

       Center              X                  Y                   Z               Mass
    ------------   -----------------  -----------------  -----------------  -----------------
      Gh(C)           2.110591190377    -0.000055513076     0.000042134322    12.000000000000
      Gh(H)           2.475301190377    -0.471655513076     0.907582134322     1.007825032230
      Gh(H)           2.475371190377    -0.550455513076    -0.861967865678     1.007825032230
      Gh(H)           2.477681190377     1.020884486924    -0.045457865678     1.007825032230
      Gh(H)           1.025061190377     0.001564486924    -0.000067865678     1.007825032230
         O           -1.812858809623     0.000214486924    -0.000087865678    15.994914619570
         H           -2.408468809623     0.752084486924     0.000402134322     1.007825032230
         H           -2.404008809623    -0.755165513076     0.000402134322     1.007825032230

  Charge       = 0
  Multiplicity = 1
  Basis Set: AUG-CC-PVTZ
    Blend: AUG-CC-PVTZ
  Basis Set: (AUG-CC-PVTZ AUX)
    Blend: AUG-CC-PVTZ-JKFIT

    Orbital Energies [Eh]
    ---------------------

    Doubly Occupied:

       1A    -20.567939     2A     -1.353260     3A     -0.714912
       4A     -0.586423     5A     -0.510452

  @DF-RHF Final Energy:   -76.06040981868875

   => Energetics <=

    Nuclear Repulsion Energy =              9.1780905519373892
    One-Electron Energy =                -123.0110253291834965
    Two-Electron Energy =                  37.7725249585573621
    Total Energy =                        -76.0604098186887541

  Dipole Moment: [D]
     X:    -1.9998      Y:    -0.0059      Z:     0.0016     Total:     1.9998

    SAPT Results
  --------------------------------------------------------------------------------------------------------
    Electrostatics                 -0.70284531 [mEh]      -0.44104209 [kcal/mol]      -1.84532012 [kJ/mol]
      Elst10,r                     -0.67531425 [mEh]      -0.42376609 [kcal/mol]      -1.77303732 [kJ/mol]
      Elst12,r                     -0.02753106 [mEh]      -0.01727600 [kcal/mol]      -0.07228280 [kJ/mol]

    Exchange                        0.80673931 [mEh]       0.50623656 [kcal/mol]       2.11809376 [kJ/mol]
      Exch10                        0.71239928 [mEh]       0.44703730 [kcal/mol]       1.87040404 [kJ/mol]
      Exch10(S^2)                   0.71193017 [mEh]       0.44674292 [kcal/mol]       1.86917239 [kJ/mol]
      Exch11(S^2)                  -0.00845027 [mEh]      -0.00530262 [kcal/mol]      -0.02218618 [kJ/mol]
      Exch12(S^2)                   0.10279030 [mEh]       0.06450189 [kcal/mol]       0.26987589 [kJ/mol]

    Induction                      -0.25584400 [mEh]      -0.16054453 [kcal/mol]      -0.67171833 [kJ/mol]
      Ind20,r                      -0.28874555 [mEh]      -0.18119057 [kcal/mol]      -0.75810134 [kJ/mol]
      Ind22                         0.00157487 [mEh]       0.00098825 [kcal/mol]       0.00413483 [kJ/mol]
      Exch-Ind20,r                  0.08803459 [mEh]       0.05524254 [kcal/mol]       0.23113478 [kJ/mol]
      Exch-Ind22                   -0.00048016 [mEh]      -0.00030130 [kcal/mol]      -0.00126065 [kJ/mol]
      delta HF,r (2)               -0.05622775 [mEh]      -0.03528345 [kcal/mol]      -0.14762595 [kJ/mol]

    Dispersion                     -0.88464016 [mEh]      -0.55512008 [kcal/mol]      -2.32262243 [kJ/mol]
      Disp20                       -0.84033243 [mEh]      -0.52731656 [kcal/mol]      -2.20629249 [kJ/mol]
      Disp21                       -0.00727184 [mEh]      -0.00456315 [kcal/mol]      -0.01909220 [kJ/mol]
      Disp22 (SDQ)                  0.02165753 [mEh]       0.01359031 [kcal/mol]       0.05686184 [kJ/mol]
      Disp22 (T)                   -0.11317710 [mEh]      -0.07101970 [kcal/mol]      -0.29714643 [kJ/mol]
      Est. Disp22 (T)              -0.12923493 [mEh]      -0.08109614 [kcal/mol]      -0.33930625 [kJ/mol]
      Exch-Disp20                   0.07054150 [mEh]       0.04426546 [kcal/mol]       0.18520667 [kJ/mol]

  Total HF                         -0.21985369 [mEh]      -0.13796027 [kcal/mol]      -0.57722578 [kJ/mol]
  Total SAPT0                      -0.98964462 [mEh]      -0.62101138 [kcal/mol]      -2.59831160 [kJ/mol]
  Total SAPT2                      -0.92174094 [mEh]      -0.57840117 [kcal/mol]      -2.42003051 [kJ/mol]
  Total SAPT2+                     -1.03659017 [mEh]      -0.65047015 [kcal/mol]      -2.72156712 [kJ/mol]

  Special recipe for scaled SAPT0 (see Manual):
    Electrostatics sSAPT0          -0.67531425 [mEh]      -0.42376609 [kcal/mol]      -1.77303732 [kJ/mol]
    Exchange sSAPT0                 0.71239928 [mEh]       0.44703730 [kcal/mol]       1.87040404 [kJ/mol]
    Induction sSAPT0               -0.25676458 [mEh]      -0.16112220 [kcal/mol]      -0.67413530 [kJ/mol]
    Dispersion sSAPT0              -0.76965140 [mEh]      -0.48296354 [kcal/mol]      -2.02071947 [kJ/mol]
  Total sSAPT0                     -0.98933095 [mEh]      -0.62081454 [kcal/mol]      -2.59748804 [kJ/mol]
  --------------------------------------------------------------------------------------------------------

*** Psi4 exiting successfully. Buy a developer a beer!
