                               Psi4 1.4a2.dev224

  ==> Input File <==

--------------------------------------------------------------------------
#Generated by lconvert.py for sapt job

memory 50 GB

molecule  {
0 1
  C       1.952940   -0.000020    0.000020
  H       2.317650   -0.471620    0.907560
  H       2.317720   -0.550420   -0.861990
  H       2.320030    1.020920   -0.045480
  H       0.867410    0.001600   -0.000090
--
0 1
  O      -3.457030   -0.000460   -0.000120
  H      -4.052650    0.751420    0.000370
  H      -4.048190   -0.755840    0.000370
units angstrom
no_reorient
symmetry c1
}

set {
scf_type DF
basis aug-cc-pvtz
freeze_core True
guess SAD
}
energy('sapt2+')
--------------------------------------------------------------------------

  //              Dimer HF             //
    Molecular point group: c1
  Charge       = 0
  Multiplicity = 1
  Basis Set: AUG-CC-PVTZ
    Blend: AUG-CC-PVTZ
  Basis Set: (AUG-CC-PVTZ AUX)
    Blend: AUG-CC-PVTZ-JKFIT
  @DF-RHF Final Energy:  -116.27416593834843
    Total Energy =                       -116.2741659383484318
  //            Monomer A HF           //
    Molecular point group: c1
  Multiplicity = 1
  Basis Set: AUG-CC-PVTZ
    Blend: AUG-CC-PVTZ
  Basis Set: (AUG-CC-PVTZ AUX)
    Blend: AUG-CC-PVTZ-JKFIT
  @DF-RHF Final Energy:   -40.21366429982055
    Total Energy =                        -40.2136642998205502
  //            Monomer B HF           //
    Molecular point group: c1

    Geometry (in Angstrom), charge = 0, multiplicity = 1:

       Center              X                  Y                   Z               Mass
    ------------   -----------------  -----------------  -----------------  -----------------
      Gh(C)           2.897066458923     0.000319831305     0.000047425032    12.000000000000
      Gh(H)           3.261776458923    -0.471280168695     0.907587425032     1.007825032230
      Gh(H)           3.261846458924    -0.550080168695    -0.861962574968     1.007825032230
      Gh(H)           3.264156458924     1.021259831305    -0.045452574968     1.007825032230
      Gh(H)           1.811536458924     0.001939831305    -0.000062574968     1.007825032230
         O           -2.512903541076    -0.000120168695    -0.000092574968    15.994914619570
         H           -3.108523541076     0.751759831305     0.000397425032     1.007825032230
         H           -3.104063541076    -0.755500168695     0.000397425032     1.007825032230

  Charge       = 0
  Multiplicity = 1
  Basis Set: AUG-CC-PVTZ
    Blend: AUG-CC-PVTZ
  Basis Set: (AUG-CC-PVTZ AUX)
    Blend: AUG-CC-PVTZ-JKFIT

    Orbital Energies [Eh]
    ---------------------

    Doubly Occupied:

       1A    -20.567967     2A     -1.353277     3A     -0.714926
       4A     -0.586426     5A     -0.510479

  @DF-RHF Final Energy:   -76.06039032242347

   => Energetics <=

    Nuclear Repulsion Energy =              9.1779952280389434
    One-Electron Energy =                -123.0106191650932175
    Two-Electron Energy =                  37.7722336146308066
    Total Energy =                        -76.0603903224234728

  Dipole Moment: [D]
     X:    -2.0003      Y:    -0.0059      Z:     0.0017     Total:     2.0003

    SAPT Results
  --------------------------------------------------------------------------------------------------------
    Electrostatics                 -0.08946564 [mEh]      -0.05614054 [kcal/mol]      -0.23489202 [kJ/mol]
      Elst10,r                     -0.09070543 [mEh]      -0.05691852 [kcal/mol]      -0.23814708 [kJ/mol]
      Elst12,r                      0.00123979 [mEh]       0.00077798 [kcal/mol]       0.00325507 [kJ/mol]

    Exchange                        0.00370835 [mEh]       0.00232702 [kcal/mol]       0.00973626 [kJ/mol]
      Exch10                        0.00296316 [mEh]       0.00185941 [kcal/mol]       0.00777978 [kJ/mol]
      Exch10(S^2)                   0.00296315 [mEh]       0.00185941 [kcal/mol]       0.00777975 [kJ/mol]
      Exch11(S^2)                  -0.00015815 [mEh]      -0.00009924 [kcal/mol]      -0.00041523 [kJ/mol]
      Exch12(S^2)                   0.00090334 [mEh]       0.00056685 [kcal/mol]       0.00237171 [kJ/mol]

    Induction                      -0.02155948 [mEh]      -0.01352878 [kcal/mol]      -0.05660441 [kJ/mol]
      Ind20,r                      -0.02376605 [mEh]      -0.01491342 [kcal/mol]      -0.06239774 [kJ/mol]
      Ind22                         0.00202960 [mEh]       0.00127359 [kcal/mol]       0.00532870 [kJ/mol]
      Exch-Ind20,r                  0.00017851 [mEh]       0.00011202 [kcal/mol]       0.00046868 [kJ/mol]
      Exch-Ind22                   -0.00001524 [mEh]      -0.00000957 [kcal/mol]      -0.00004002 [kJ/mol]
      delta HF,r (2)                0.00001370 [mEh]       0.00000860 [kcal/mol]       0.00003597 [kJ/mol]

    Dispersion                     -0.08828713 [mEh]      -0.05540101 [kcal/mol]      -0.23179784 [kJ/mol]
      Disp20                       -0.07976966 [mEh]      -0.05005622 [kcal/mol]      -0.20943521 [kJ/mol]
      Disp21                        0.00161479 [mEh]       0.00101330 [kcal/mol]       0.00423963 [kJ/mol]
      Disp22 (SDQ)                  0.00235225 [mEh]       0.00147606 [kcal/mol]       0.00617584 [kJ/mol]
      Disp22 (T)                   -0.01216132 [mEh]      -0.00763134 [kcal/mol]      -0.03192953 [kJ/mol]
      Est. Disp22 (T)              -0.01290645 [mEh]      -0.00809892 [kcal/mol]      -0.03388587 [kJ/mol]
      Exch-Disp20                   0.00042193 [mEh]       0.00026476 [kcal/mol]       0.00110777 [kJ/mol]

  Total HF                         -0.11131610 [mEh]      -0.06985191 [kcal/mol]      -0.29226039 [kJ/mol]
  Total SAPT0                      -0.19066384 [mEh]      -0.11964336 [kcal/mol]      -0.50058783 [kJ/mol]
  Total SAPT2                      -0.18666451 [mEh]      -0.11713375 [kcal/mol]      -0.49008761 [kJ/mol]
  Total SAPT2+                     -0.19560392 [mEh]      -0.12274331 [kcal/mol]      -0.51355801 [kJ/mol]

  Special recipe for scaled SAPT0 (see Manual):
    Electrostatics sSAPT0          -0.09070543 [mEh]      -0.05691852 [kcal/mol]      -0.23814708 [kJ/mol]
    Exchange sSAPT0                 0.00296316 [mEh]       0.00185941 [kcal/mol]       0.00777978 [kJ/mol]
    Induction sSAPT0               -0.02357383 [mEh]      -0.01479280 [kcal/mol]      -0.06189309 [kJ/mol]
    Dispersion sSAPT0              -0.07934773 [mEh]      -0.04979145 [kcal/mol]      -0.20832744 [kJ/mol]
  Total sSAPT0                     -0.19066384 [mEh]      -0.11964336 [kcal/mol]      -0.50058783 [kJ/mol]
  --------------------------------------------------------------------------------------------------------

*** Psi4 exiting successfully. Buy a developer a beer!
