                               Psi4 1.4a2.dev224

  ==> Input File <==

--------------------------------------------------------------------------
#Generated by lconvert.py for sapt job

memory 50 GB

molecule  {
0 1
  C       1.952940   -0.000020    0.000020
  H       2.317650   -0.471620    0.907560
  H       2.317720   -0.550420   -0.861990
  H       2.320030    1.020920   -0.045480
  H       0.867410    0.001600   -0.000090
--
0 1
  O      -1.700230    0.000380   -0.000110
  H      -2.295850    0.752250    0.000380
  H      -2.291380   -0.755000    0.000380
units angstrom
no_reorient
symmetry c1
}

set {
scf_type DF
basis aug-cc-pvtz
freeze_core True
guess SAD
}
energy('sapt2+')
--------------------------------------------------------------------------

  //              Dimer HF             //
    Molecular point group: c1
  Charge       = 0
  Multiplicity = 1
  Basis Set: AUG-CC-PVTZ
    Blend: AUG-CC-PVTZ
  Basis Set: (AUG-CC-PVTZ AUX)
    Blend: AUG-CC-PVTZ-JKFIT
  @DF-RHF Final Energy:  -116.27394487482496
    Total Energy =                       -116.2739448748249629
  //            Monomer A HF           //
    Molecular point group: c1
  Multiplicity = 1
  Basis Set: AUG-CC-PVTZ
    Blend: AUG-CC-PVTZ
  Basis Set: (AUG-CC-PVTZ AUX)
    Blend: AUG-CC-PVTZ-JKFIT
  @DF-RHF Final Energy:   -40.21367521964991
    Total Energy =                        -40.2136752196499145
  //            Monomer B HF           //
    Molecular point group: c1

    Geometry (in Angstrom), charge = 0, multiplicity = 1:

       Center              X                  Y                   Z               Mass
    ------------   -----------------  -----------------  -----------------  -----------------
      Gh(C)           1.967594166820    -0.000124292310     0.000042134322    12.000000000000
      Gh(H)           2.332304166820    -0.471724292310     0.907582134322     1.007825032230
      Gh(H)           2.332374166820    -0.550524292310    -0.861967865678     1.007825032230
      Gh(H)           2.334684166820     1.020815707690    -0.045457865678     1.007825032230
      Gh(H)           0.882064166820     0.001495707690    -0.000067865678     1.007825032230
         O           -1.685575833180     0.000275707690    -0.000087865678    15.994914619570
         H           -2.281195833180     0.752145707690     0.000402134322     1.007825032230
         H           -2.276725833180    -0.755104292310     0.000402134322     1.007825032230

  Charge       = 0
  Multiplicity = 1
  Basis Set: AUG-CC-PVTZ
    Blend: AUG-CC-PVTZ
  Basis Set: (AUG-CC-PVTZ AUX)
    Blend: AUG-CC-PVTZ-JKFIT

    Orbital Energies [Eh]
    ---------------------

    Doubly Occupied:

       1A    -20.567914     2A     -1.353242     3A     -0.714895
       4A     -0.586417     5A     -0.510437

  @DF-RHF Final Energy:   -76.06042281196015

   => Energetics <=

    Nuclear Repulsion Energy =              9.1780619738492764
    One-Electron Energy =                -123.0111577059884098
    Two-Electron Energy =                  37.7726729201789766
    Total Energy =                        -76.0604228119601515

  Dipole Moment: [D]
     X:    -1.9993      Y:    -0.0059      Z:     0.0016     Total:     1.9993

    SAPT Results
  --------------------------------------------------------------------------------------------------------
    Electrostatics                 -1.31626018 [mEh]      -0.82596573 [kcal/mol]      -3.45584062 [kJ/mol]
      Elst10,r                     -1.24962381 [mEh]      -0.78415078 [kcal/mol]      -3.28088687 [kJ/mol]
      Elst12,r                     -0.06663636 [mEh]      -0.04181495 [kcal/mol]      -0.17495375 [kJ/mol]

    Exchange                        2.10433461 [mEh]       1.32048990 [kcal/mol]       5.52492975 [kJ/mol]
      Exch10                        1.89206062 [mEh]       1.18728596 [kcal/mol]       4.96760446 [kJ/mol]
      Exch10(S^2)                   1.88900129 [mEh]       1.18536620 [kcal/mol]       4.95957220 [kJ/mol]
      Exch11(S^2)                  -0.00939843 [mEh]      -0.00589761 [kcal/mol]      -0.02467559 [kJ/mol]
      Exch12(S^2)                   0.22167243 [mEh]       0.13910155 [kcal/mol]       0.58200088 [kJ/mol]

    Induction                      -0.49733607 [mEh]      -0.31208310 [kcal/mol]      -1.30575568 [kJ/mol]
      Ind20,r                      -0.60869637 [mEh]      -0.38196274 [kcal/mol]      -1.59813210 [kJ/mol]
      Ind22                        -0.01501221 [mEh]      -0.00942031 [kcal/mol]      -0.03941457 [kJ/mol]
      Exch-Ind20,r                  0.28204953 [mEh]       0.17698875 [kcal/mol]       0.74052094 [kJ/mol]
      Exch-Ind22                    0.00695616 [mEh]       0.00436506 [kcal/mol]       0.01826339 [kJ/mol]
      delta HF,r (2)               -0.16263318 [mEh]      -0.10205386 [kcal/mol]      -0.42699335 [kJ/mol]

    Dispersion                     -1.45527782 [mEh]      -0.91320062 [kcal/mol]      -3.82083138 [kJ/mol]
      Disp20                       -1.44072336 [mEh]      -0.90406756 [kcal/mol]      -3.78261865 [kJ/mol]
      Disp21                       -0.00837965 [mEh]      -0.00525831 [kcal/mol]      -0.02200077 [kJ/mol]
      Disp22 (SDQ)                  0.03808216 [mEh]       0.02389691 [kcal/mol]       0.09998469 [kJ/mol]
      Disp22 (T)                   -0.18396048 [mEh]      -0.11543695 [kcal/mol]      -0.48298818 [kJ/mol]
      Est. Disp22 (T)              -0.21498704 [mEh]      -0.13490640 [kcal/mol]      -0.56444838 [kJ/mol]
      Exch-Disp20                   0.17073007 [mEh]       0.10713474 [kcal/mol]       0.44825174 [kJ/mol]

  Total HF                          0.15315679 [mEh]       0.09610733 [kcal/mol]       0.40211308 [kJ/mol]
  Total SAPT0                      -1.11683650 [mEh]      -0.70082549 [kcal/mol]      -2.93225383 [kJ/mol]
  Total SAPT2                      -0.97925493 [mEh]      -0.61449174 [kcal/mol]      -2.57103346 [kJ/mol]
  Total SAPT2+                     -1.16453946 [mEh]      -0.73075954 [kcal/mol]      -3.05749793 [kJ/mol]

  Special recipe for scaled SAPT0 (see Manual):
    Electrostatics sSAPT0          -1.24962381 [mEh]      -0.78415078 [kcal/mol]      -3.28088687 [kJ/mol]
    Exchange sSAPT0                 1.89206062 [mEh]       1.18728596 [kcal/mol]       4.96760446 [kJ/mol]
    Induction sSAPT0               -0.48790742 [mEh]      -0.30616653 [kcal/mol]      -1.28100075 [kJ/mol]
    Dispersion sSAPT0              -1.26916243 [mEh]      -0.79641145 [kcal/mol]      -3.33218549 [kJ/mol]
  Total sSAPT0                     -1.11463304 [mEh]      -0.69944279 [kcal/mol]      -2.92646865 [kJ/mol]
  --------------------------------------------------------------------------------------------------------

*** Psi4 exiting successfully. Buy a developer a beer!
