                               Psi4 1.4a2.dev224

  ==> Input File <==

--------------------------------------------------------------------------
#Generated by lconvert.py for sapt job

memory 50 GB

molecule  {
0 1
  C       1.952940   -0.000020    0.000020
  H       2.317650   -0.471620    0.907560
  H       2.317720   -0.550420   -0.861990
  H       2.320030    1.020920   -0.045480
  H       0.867410    0.001600   -0.000090
--
0 1
  O      -1.565090    0.000440   -0.000110
  H      -2.160710    0.752310    0.000380
  H      -2.156250   -0.754940    0.000380
units angstrom
no_reorient
symmetry c1
}

set {
scf_type DF
basis aug-cc-pvtz
freeze_core True
guess SAD
}
energy('sapt2+')
--------------------------------------------------------------------------

  //              Dimer HF             //
    Molecular point group: c1
  Charge       = 0
  Multiplicity = 1
  Basis Set: AUG-CC-PVTZ
    Blend: AUG-CC-PVTZ
  Basis Set: (AUG-CC-PVTZ AUX)
    Blend: AUG-CC-PVTZ-JKFIT
  @DF-RHF Final Energy:  -116.27350099453714
    Total Energy =                       -116.2735009945371445
  //            Monomer A HF           //
    Molecular point group: c1
  Multiplicity = 1
  Basis Set: AUG-CC-PVTZ
    Blend: AUG-CC-PVTZ
  Basis Set: (AUG-CC-PVTZ AUX)
    Blend: AUG-CC-PVTZ-JKFIT
  @DF-RHF Final Energy:   -40.21367669521767
    Total Energy =                        -40.2136766952176714
  //            Monomer B HF           //
    Molecular point group: c1

    Geometry (in Angstrom), charge = 0, multiplicity = 1:

       Center              X                  Y                   Z               Mass
    ------------   -----------------  -----------------  -----------------  -----------------
      Gh(C)           1.896095803070    -0.000156036573     0.000042134322    12.000000000000
      Gh(H)           2.260805803070    -0.471756036573     0.907582134322     1.007825032230
      Gh(H)           2.260875803070    -0.550556036573    -0.861967865678     1.007825032230
      Gh(H)           2.263185803070     1.020783963427    -0.045457865678     1.007825032230
      Gh(H)           0.810565803070     0.001463963427    -0.000067865678     1.007825032230
         O           -1.621934196930     0.000303963427    -0.000087865678    15.994914619570
         H           -2.217554196930     0.752173963427     0.000402134322     1.007825032230
         H           -2.213094196930    -0.755076036573     0.000402134322     1.007825032230

  Charge       = 0
  Multiplicity = 1
  Basis Set: AUG-CC-PVTZ
    Blend: AUG-CC-PVTZ
  Basis Set: (AUG-CC-PVTZ AUX)
    Blend: AUG-CC-PVTZ-JKFIT

    Orbital Energies [Eh]
    ---------------------

    Doubly Occupied:

       1A    -20.567900     2A     -1.353232     3A     -0.714885
       4A     -0.586411     5A     -0.510431

  @DF-RHF Final Energy:   -76.06042839396656

   => Energetics <=

    Nuclear Repulsion Energy =              9.1780336233865381
    One-Electron Energy =                -123.0112009116596710
    Two-Electron Energy =                  37.7727388943065847
    Total Energy =                        -76.0604283939665464

  Dipole Moment: [D]
     X:    -1.9991      Y:    -0.0059      Z:     0.0016     Total:     1.9991

    SAPT Results
  --------------------------------------------------------------------------------------------------------
    Electrostatics                 -1.86962380 [mEh]      -1.17320664 [kcal/mol]      -4.90869660 [kJ/mol]
      Elst10,r                     -1.77020714 [mEh]      -1.11082175 [kcal/mol]      -4.64767820 [kJ/mol]
      Elst12,r                     -0.09941666 [mEh]      -0.06238489 [kcal/mol]      -0.26101840 [kJ/mol]

    Exchange                        3.38707972 [mEh]       2.12542462 [kcal/mol]       8.89277659 [kJ/mol]
      Exch10                        3.07325195 [mEh]       1.92849471 [kcal/mol]       8.06882188 [kJ/mol]
      Exch10(S^2)                   3.06550795 [mEh]       1.92363528 [kcal/mol]       8.04849001 [kJ/mol]
      Exch11(S^2)                  -0.00547394 [mEh]      -0.00343495 [kcal/mol]      -0.01437183 [kJ/mol]
      Exch12(S^2)                   0.31930172 [mEh]       0.20036485 [kcal/mol]       0.83832654 [kJ/mol]

    Induction                      -0.71475912 [mEh]      -0.44851812 [kcal/mol]      -1.87659981 [kJ/mol]
      Ind20,r                      -0.92976908 [mEh]      -0.58343890 [kcal/mol]      -2.44110838 [kJ/mol]
      Ind22                        -0.03463771 [mEh]      -0.02173549 [kcal/mol]      -0.09094131 [kJ/mol]
      Exch-Ind20,r                  0.50541425 [mEh]       0.31715223 [kcal/mol]       1.32696493 [kJ/mol]
      Exch-Ind22                    0.01882876 [mEh]       0.01181522 [kcal/mol]       0.04943489 [kJ/mol]
      delta HF,r (2)               -0.27459533 [mEh]      -0.17231117 [kcal/mol]      -0.72094995 [kJ/mol]

    Dispersion                     -1.87965156 [mEh]      -1.17949916 [kcal/mol]      -4.93502450 [kJ/mol]
      Disp20                       -1.90997371 [mEh]      -1.19852660 [kcal/mol]      -5.01463529 [kJ/mol]
      Disp21                       -0.00451439 [mEh]      -0.00283282 [kcal/mol]      -0.01185252 [kJ/mol]
      Disp22 (SDQ)                  0.05131190 [mEh]       0.03219871 [kcal/mol]       0.13471939 [kJ/mol]
      Disp22 (T)                   -0.23758895 [mEh]      -0.14908931 [kcal/mol]      -0.62378969 [kJ/mol]
      Est. Disp22 (T)              -0.28002093 [mEh]      -0.17571578 [kcal/mol]      -0.73519484 [kJ/mol]
      Exch-Disp20                   0.26354556 [mEh]       0.16537733 [kcal/mol]       0.69193877 [kJ/mol]

  Total HF                          0.60409465 [mEh]       0.37907511 [kcal/mol]       1.58605028 [kJ/mol]
  Total SAPT0                      -1.04233351 [mEh]      -0.65407415 [kcal/mol]      -2.73664624 [kJ/mol]
  Total SAPT2                      -0.84373134 [mEh]      -0.52944941 [kcal/mol]      -2.21521634 [kJ/mol]
  Total SAPT2+                     -1.07695475 [mEh]      -0.67579931 [kcal/mol]      -2.82754432 [kJ/mol]

  Special recipe for scaled SAPT0 (see Manual):
    Electrostatics sSAPT0          -1.77020714 [mEh]      -1.11082175 [kcal/mol]      -4.64767820 [kJ/mol]
    Exchange sSAPT0                 3.07325195 [mEh]       1.92849471 [kcal/mol]       8.06882188 [kJ/mol]
    Induction sSAPT0               -0.69511019 [mEh]      -0.43618823 [kcal/mol]      -1.82501155 [kJ/mol]
    Dispersion sSAPT0              -1.64442582 [mEh]      -1.03189278 [kcal/mol]      -4.31743939 [kJ/mol]
  Total sSAPT0                     -1.03649120 [mEh]      -0.65040805 [kcal/mol]      -2.72130727 [kJ/mol]
  --------------------------------------------------------------------------------------------------------

*** Psi4 exiting successfully. Buy a developer a beer!
