                               Psi4 1.4a2.dev224

  ==> Input File <==

--------------------------------------------------------------------------
#Generated by lconvert.py for sapt job

memory 50 GB

molecule  {
0 1
  C       1.952940   -0.000020    0.000020
  H       2.317650   -0.471620    0.907560
  H       2.317720   -0.550420   -0.861990
  H       2.320030    1.020920   -0.045480
  H       0.867410    0.001600   -0.000090
--
0 1
  O      -2.646200   -0.000070   -0.000120
  H      -3.241820    0.751800    0.000380
  H      -3.237360   -0.755450    0.000370
units angstrom
no_reorient
symmetry c1
}

set {
scf_type DF
basis aug-cc-pvtz
freeze_core True
guess SAD
}
energy('sapt2+')
--------------------------------------------------------------------------

  //              Dimer HF             //
    Molecular point group: c1
  Charge       = 0
  Multiplicity = 1
  Basis Set: AUG-CC-PVTZ
    Blend: AUG-CC-PVTZ
  Basis Set: (AUG-CC-PVTZ AUX)
    Blend: AUG-CC-PVTZ-JKFIT
  @DF-RHF Final Energy:  -116.27429492814613
    Total Energy =                       -116.2742949281461335
  //            Monomer A HF           //
    Molecular point group: c1
  Multiplicity = 1
  Basis Set: AUG-CC-PVTZ
    Blend: AUG-CC-PVTZ
  Basis Set: (AUG-CC-PVTZ AUX)
    Blend: AUG-CC-PVTZ-JKFIT
  @DF-RHF Final Energy:   -40.21366640727312
    Total Energy =                        -40.2136664072731236
  //            Monomer B HF           //
    Molecular point group: c1

    Geometry (in Angstrom), charge = 0, multiplicity = 1:

       Center              X                  Y                   Z               Mass
    ------------   -----------------  -----------------  -----------------  -----------------
      Gh(C)           2.468079790802     0.000113789656     0.000047128977    12.000000000000
      Gh(H)           2.832789790802    -0.471486210344     0.907587128977     1.007825032230
      Gh(H)           2.832859790802    -0.550286210344    -0.861962871023     1.007825032230
      Gh(H)           2.835169790802     1.021053789656    -0.045452871023     1.007825032230
      Gh(H)           1.382549790802     0.001733789656    -0.000062871023     1.007825032230
         O           -2.131060209198     0.000063789656    -0.000092871023    15.994914619570
         H           -2.726680209198     0.751933789656     0.000407128977     1.007825032230
         H           -2.722220209198    -0.755316210344     0.000397128977     1.007825032230

  Charge       = 0
  Multiplicity = 1
  Basis Set: AUG-CC-PVTZ
    Blend: AUG-CC-PVTZ
  Basis Set: (AUG-CC-PVTZ AUX)
    Blend: AUG-CC-PVTZ-JKFIT

    Orbital Energies [Eh]
    ---------------------

    Doubly Occupied:

       1A    -20.567967     2A     -1.353280     3A     -0.714929
       4A     -0.586428     5A     -0.510478

  @DF-RHF Final Energy:   -76.06039343714052

   => Energetics <=

    Nuclear Repulsion Energy =              9.1780335996342739
    One-Electron Energy =                -123.0106893963625225
    Two-Electron Energy =                  37.7722623595877423
    Total Energy =                        -76.0603934371405046

  Dipole Moment: [D]
     X:    -2.0005      Y:    -0.0059      Z:     0.0017     Total:     2.0005

    SAPT Results
  --------------------------------------------------------------------------------------------------------
    Electrostatics                 -0.22326676 [mEh]      -0.14010201 [kcal/mol]      -0.58618680 [kJ/mol]
      Elst10,r                     -0.22262334 [mEh]      -0.13969825 [kcal/mol]      -0.58449749 [kJ/mol]
      Elst12,r                     -0.00064343 [mEh]      -0.00040376 [kcal/mol]      -0.00168932 [kJ/mol]

    Exchange                        0.07118199 [mEh]       0.04466737 [kcal/mol]       0.18688829 [kJ/mol]
      Exch10                        0.06007569 [mEh]       0.03769806 [kcal/mol]       0.15772870 [kJ/mol]
      Exch10(S^2)                   0.06007170 [mEh]       0.03769556 [kcal/mol]       0.15771822 [kJ/mol]
      Exch11(S^2)                  -0.00182721 [mEh]      -0.00114659 [kcal/mol]      -0.00479733 [kJ/mol]
      Exch12(S^2)                   0.01293351 [mEh]       0.00811590 [kcal/mol]       0.03395691 [kJ/mol]

    Induction                      -0.06807589 [mEh]      -0.04271826 [kcal/mol]      -0.17873322 [kJ/mol]
      Ind20,r                      -0.07401497 [mEh]      -0.04644510 [kcal/mol]      -0.19432629 [kJ/mol]
      Ind22                         0.00478265 [mEh]       0.00300116 [kcal/mol]       0.01255686 [kJ/mol]
      Exch-Ind20,r                  0.00499018 [mEh]       0.00313139 [kcal/mol]       0.01310173 [kJ/mol]
      Exch-Ind22                   -0.00032245 [mEh]      -0.00020234 [kcal/mol]      -0.00084660 [kJ/mol]
      delta HF,r (2)               -0.00351130 [mEh]      -0.00220337 [kcal/mol]      -0.00921891 [kJ/mol]

    Dispersion                     -0.28109944 [mEh]      -0.17639256 [kcal/mol]      -0.73802647 [kJ/mol]
      Disp20                       -0.25460388 [mEh]      -0.15976635 [kcal/mol]      -0.66846240 [kJ/mol]
      Disp21                        0.00013563 [mEh]       0.00008511 [kcal/mol]       0.00035609 [kJ/mol]
      Disp22 (SDQ)                  0.00675338 [mEh]       0.00423781 [kcal/mol]       0.01773101 [kJ/mol]
      Disp22 (T)                   -0.03675660 [mEh]      -0.02306512 [kcal/mol]      -0.09650445 [kJ/mol]
      Est. Disp22 (T)              -0.04058103 [mEh]      -0.02546498 [kcal/mol]      -0.10654547 [kJ/mol]
      Exch-Disp20                   0.00719646 [mEh]       0.00451585 [kcal/mol]       0.01889430 [kJ/mol]

  Total HF                         -0.23508373 [mEh]      -0.14751727 [kcal/mol]      -0.61721225 [kJ/mol]
  Total SAPT0                      -0.48249116 [mEh]      -0.30276777 [kcal/mol]      -1.26678035 [kJ/mol]
  Total SAPT2                      -0.46756808 [mEh]      -0.29340340 [kcal/mol]      -1.22759983 [kJ/mol]
  Total SAPT2+                     -0.50126010 [mEh]      -0.31454546 [kcal/mol]      -1.31605820 [kJ/mol]

  Special recipe for scaled SAPT0 (see Manual):
    Electrostatics sSAPT0          -0.22262334 [mEh]      -0.13969825 [kcal/mol]      -0.58449749 [kJ/mol]
    Exchange sSAPT0                 0.06007569 [mEh]       0.03769806 [kcal/mol]       0.15772870 [kJ/mol]
    Induction sSAPT0               -0.07253509 [mEh]      -0.04551646 [kcal/mol]      -0.19044086 [kJ/mol]
    Dispersion sSAPT0              -0.24740599 [mEh]      -0.15524960 [kcal/mol]      -0.64956433 [kJ/mol]
  Total sSAPT0                     -0.48248872 [mEh]      -0.30276625 [kcal/mol]      -1.26677397 [kJ/mol]
  --------------------------------------------------------------------------------------------------------

*** Psi4 exiting successfully. Buy a developer a beer!
