                               Psi4 1.4a2.dev224

  ==> Input File <==

--------------------------------------------------------------------------
#Generated by lconvert.py for sapt job

memory 50 GB

molecule  {
0 1
  C       1.952940   -0.000020    0.000020
  H       2.317650   -0.471620    0.907560
  H       2.317720   -0.550420   -0.861990
  H       2.320030    1.020920   -0.045480
  H       0.867410    0.001600   -0.000090
--
0 1
  O      -1.294810    0.000570   -0.000110
  H      -1.890430    0.752440    0.000390
  H      -1.885970   -0.754810    0.000380
units angstrom
no_reorient
symmetry c1
}

set {
scf_type DF
basis aug-cc-pvtz
freeze_core True
guess SAD
}
energy('sapt2+')
--------------------------------------------------------------------------

  //              Dimer HF             //
    Molecular point group: c1
  Charge       = 0
  Multiplicity = 1
  Basis Set: AUG-CC-PVTZ
    Blend: AUG-CC-PVTZ
  Basis Set: (AUG-CC-PVTZ AUX)
    Blend: AUG-CC-PVTZ-JKFIT
  @DF-RHF Final Energy:  -116.27140448558490
    Total Energy =                       -116.2714044855848954
  //            Monomer A HF           //
    Molecular point group: c1
  Multiplicity = 1
  Basis Set: AUG-CC-PVTZ
    Blend: AUG-CC-PVTZ
  Basis Set: (AUG-CC-PVTZ AUX)
    Blend: AUG-CC-PVTZ-JKFIT
  @DF-RHF Final Energy:   -40.21367924869621
    Total Energy =                        -40.2136792486962094
  //            Monomer B HF           //
    Molecular point group: c1

    Geometry (in Angstrom), charge = 0, multiplicity = 1:

       Center              X                  Y                   Z               Mass
    ------------   -----------------  -----------------  -----------------  -----------------
      Gh(C)           1.753098483459    -0.000224815807     0.000041838267    12.000000000000
      Gh(H)           2.117808483459    -0.471824815807     0.907581838267     1.007825032230
      Gh(H)           2.117878483459    -0.550624815807    -0.861968161733     1.007825032230
      Gh(H)           2.120188483459     1.020715184193    -0.045458161733     1.007825032230
      Gh(H)           0.667568483459     0.001395184193    -0.000068161733     1.007825032230
         O           -1.494651516541     0.000365184193    -0.000088161733    15.994914619570
         H           -2.090271516541     0.752235184193     0.000411838267     1.007825032230
         H           -2.085811516541    -0.755014815807     0.000401838267     1.007825032230

  Charge       = 0
  Multiplicity = 1
  Basis Set: AUG-CC-PVTZ
    Blend: AUG-CC-PVTZ
  Basis Set: (AUG-CC-PVTZ AUX)
    Blend: AUG-CC-PVTZ-JKFIT

    Orbital Energies [Eh]
    ---------------------

    Doubly Occupied:

       1A    -20.567874     2A     -1.353217     3A     -0.714872
       4A     -0.586398     5A     -0.510425

  @DF-RHF Final Energy:   -76.06043597985469

   => Energetics <=

    Nuclear Repulsion Energy =              9.1780335996342739
    One-Electron Energy =                -123.0113649172205044
    Two-Electron Energy =                  37.7728953377315406
    Total Energy =                        -76.0604359798546881

  Dipole Moment: [D]
     X:    -1.9985      Y:    -0.0059      Z:     0.0017     Total:     1.9985

    SAPT Results
  --------------------------------------------------------------------------------------------------------
    Electrostatics                 -4.01265021 [mEh]      -2.51797602 [kcal/mol]     -10.53521169 [kJ/mol]
      Elst10,r                     -3.80862011 [mEh]      -2.38994520 [kcal/mol]      -9.99953073 [kJ/mol]
      Elst12,r                     -0.20403010 [mEh]      -0.12803082 [kcal/mol]      -0.53568095 [kJ/mol]

    Exchange                        8.70156815 [mEh]       5.46031645 [kcal/mol]      22.84596403 [kJ/mol]
      Exch10                        8.04276610 [mEh]       5.04691192 [kcal/mol]      21.11627948 [kJ/mol]
      Exch10(S^2)                   7.99420523 [mEh]       5.01643952 [kcal/mol]      20.98878293 [kJ/mol]
      Exch11(S^2)                   0.03015685 [mEh]       0.01892371 [kcal/mol]       0.07917680 [kJ/mol]
      Exch12(S^2)                   0.62864520 [mEh]       0.39448082 [kcal/mol]       1.65050774 [kJ/mol]

    Induction                      -1.56403738 [mEh]      -0.98144827 [kcal/mol]      -4.10637956 [kJ/mol]
      Ind20,r                      -2.38131210 [mEh]      -1.49429590 [kcal/mol]      -6.25213405 [kJ/mol]
      Ind22                        -0.12776235 [mEh]      -0.08017209 [kcal/mol]      -0.33544000 [kJ/mol]
      Exch-Ind20,r                  1.62394433 [mEh]       1.01904045 [kcal/mol]       4.26366524 [kJ/mol]
      Exch-Ind22                    0.08712799 [mEh]       0.05467364 [kcal/mol]       0.22875451 [kJ/mol]
      delta HF,r (2)               -0.76603525 [mEh]      -0.48069438 [kcal/mol]      -2.01122527 [kJ/mol]

    Dispersion                     -3.17469745 [mEh]      -1.99215272 [kcal/mol]      -8.33516700 [kJ/mol]
      Disp20                       -3.43400836 [mEh]      -2.15487278 [kcal/mol]      -9.01598770 [kJ/mol]
      Disp21                        0.03137488 [mEh]       0.01968804 [kcal/mol]       0.08237474 [kJ/mol]
      Disp22 (SDQ)                  0.09466135 [mEh]       0.05940089 [kcal/mol]       0.24853334 [kJ/mol]
      Disp22 (T)                   -0.40525280 [mEh]      -0.25429997 [kcal/mol]      -1.06399109 [kJ/mol]
      Est. Disp22 (T)              -0.48264223 [mEh]      -0.30286257 [kcal/mol]      -1.26717701 [kJ/mol]
      Exch-Disp20                   0.61591692 [mEh]       0.38649370 [kcal/mol]       1.61708964 [kJ/mol]

  Total HF                          2.71074297 [mEh]       1.70101689 [kcal/mol]       7.11705468 [kJ/mol]
  Total SAPT0                      -0.10734848 [mEh]      -0.06736219 [kcal/mol]      -0.28184338 [kJ/mol]
  Total SAPT2                       0.30678912 [mEh]       0.19251308 [kcal/mol]       0.80547472 [kJ/mol]
  Total SAPT2+                     -0.04981688 [mEh]      -0.03126057 [kcal/mol]      -0.13079421 [kJ/mol]

  Special recipe for scaled SAPT0 (see Manual):
    Electrostatics sSAPT0          -3.80862011 [mEh]      -2.38994520 [kcal/mol]      -9.99953073 [kJ/mol]
    Exchange sSAPT0                 8.04276610 [mEh]       5.04691192 [kcal/mol]      21.11627948 [kJ/mol]
    Induction sSAPT0               -1.49362889 [mEh]      -0.93726628 [kcal/mol]      -3.92152212 [kJ/mol]
    Dispersion sSAPT0              -2.80679894 [mEh]      -1.76129293 [kcal/mol]      -7.36924961 [kJ/mol]
  Total sSAPT0                     -0.06628185 [mEh]      -0.04159249 [kcal/mol]      -0.17402298 [kJ/mol]
  --------------------------------------------------------------------------------------------------------

*** Psi4 exiting successfully. Buy a developer a beer!
