                               Psi4 1.4a2.dev224

  ==> Input File <==

--------------------------------------------------------------------------
#Generated by lconvert.py for sapt job

memory 50 GB

molecule  {
0 1
  C       1.952940   -0.000020    0.000020
  H       2.317650   -0.471620    0.907560
  H       2.317720   -0.550420   -0.861990
  H       2.320030    1.020920   -0.045480
  H       0.867410    0.001600   -0.000090
--
0 1
  O      -1.024530    0.000700   -0.000100
  H      -1.620150    0.752570    0.000390
  H      -1.615690   -0.754680    0.000390
units angstrom
no_reorient
symmetry c1
}

set {
scf_type DF
basis aug-cc-pvtz
freeze_core True
guess SAD
}
energy('sapt2+')
--------------------------------------------------------------------------

  //              Dimer HF             //
    Molecular point group: c1
  Charge       = 0
  Multiplicity = 1
  Basis Set: AUG-CC-PVTZ
    Blend: AUG-CC-PVTZ
  Basis Set: (AUG-CC-PVTZ AUX)
    Blend: AUG-CC-PVTZ-JKFIT
  @DF-RHF Final Energy:  -116.26572068400336
    Total Energy =                       -116.2657206840033552
  //            Monomer A HF           //
    Molecular point group: c1
  Multiplicity = 1
  Basis Set: AUG-CC-PVTZ
    Blend: AUG-CC-PVTZ
  Basis Set: (AUG-CC-PVTZ AUX)
    Blend: AUG-CC-PVTZ-JKFIT
  @DF-RHF Final Energy:   -40.21368260848640
    Total Energy =                        -40.2136826084864012
  //            Monomer B HF           //
    Molecular point group: c1

    Geometry (in Angstrom), charge = 0, multiplicity = 1:

       Center              X                  Y                   Z               Mass
    ------------   -----------------  -----------------  -----------------  -----------------
      Gh(C)           1.610101163848    -0.000293595042     0.000036843611    12.000000000000
      Gh(H)           1.974811163848    -0.471893595042     0.907576843611     1.007825032230
      Gh(H)           1.974881163848    -0.550693595042    -0.861973156389     1.007825032230
      Gh(H)           1.977191163848     1.020646404958    -0.045463156389     1.007825032230
      Gh(H)           0.524571163848     0.001326404958    -0.000073156389     1.007825032230
         O           -1.367368836152     0.000426404958    -0.000083156389    15.994914619570
         H           -1.962988836152     0.752296404958     0.000406843611     1.007825032230
         H           -1.958528836152    -0.754953595042     0.000406843611     1.007825032230

  Charge       = 0
  Multiplicity = 1
  Basis Set: AUG-CC-PVTZ
    Blend: AUG-CC-PVTZ
  Basis Set: (AUG-CC-PVTZ AUX)
    Blend: AUG-CC-PVTZ-JKFIT

    Orbital Energies [Eh]
    ---------------------

    Doubly Occupied:

       1A    -20.567853     2A     -1.353201     3A     -0.714857
       4A     -0.586388     5A     -0.510419

  @DF-RHF Final Energy:   -76.06044881680145

   => Energetics <=

    Nuclear Repulsion Energy =              9.1780336233865345
    One-Electron Energy =                -123.0115241782208670
    Two-Electron Energy =                  37.7730417380328731
    Total Energy =                        -76.0604488168014541

  Dipole Moment: [D]
     X:    -1.9979      Y:    -0.0060      Z:     0.0017     Total:     1.9979

    SAPT Results
  --------------------------------------------------------------------------------------------------------
    Electrostatics                 -9.13492883 [mEh]      -5.73225438 [kcal/mol]     -23.98375234 [kJ/mol]
      Elst10,r                     -8.77000089 [mEh]      -5.50325865 [kcal/mol]     -23.02563417 [kJ/mol]
      Elst12,r                     -0.36492794 [mEh]      -0.22899574 [kcal/mol]      -0.95811817 [kJ/mol]

    Exchange                       22.04607532 [mEh]      13.83412112 [kcal/mol]      57.88196278 [kJ/mol]
      Exch10                       20.77138341 [mEh]      13.03423987 [kcal/mol]      54.53525963 [kJ/mol]
      Exch10(S^2)                  20.47741439 [mEh]      12.84977153 [kcal/mol]      53.76344406 [kJ/mol]
      Exch11(S^2)                   0.15894728 [mEh]       0.09974092 [kcal/mol]       0.41731603 [kJ/mol]
      Exch12(S^2)                   1.11574463 [mEh]       0.70014033 [kcal/mol]       2.92938712 [kJ/mol]

    Induction                      -3.68073859 [mEh]      -2.30969834 [kcal/mol]      -9.66377783 [kJ/mol]
      Ind20,r                      -6.73642372 [mEh]      -4.22716970 [kcal/mol]     -17.68647804 [kJ/mol]
      Ind22                        -0.38993184 [mEh]      -0.24468592 [kcal/mol]      -1.02376590 [kJ/mol]
      Exch-Ind20,r                  5.17991075 [mEh]       3.25044307 [kcal/mol]      13.59985379 [kJ/mol]
      Exch-Ind22                    0.29983448 [mEh]       0.18814898 [kcal/mol]       0.78721533 [kJ/mol]
      delta HF,r (2)               -2.03412826 [mEh]      -1.27643475 [kcal/mol]      -5.34060301 [kJ/mol]

    Dispersion                     -5.45461712 [mEh]      -3.42282392 [kcal/mol]     -14.32109528 [kJ/mol]
      Disp20                       -6.34182684 [mEh]      -3.97955642 [kcal/mol]     -16.65046408 [kJ/mol]
      Disp21                        0.17120041 [mEh]       0.10742988 [kcal/mol]       0.44948661 [kJ/mol]
      Disp22 (SDQ)                  0.17401522 [mEh]       0.10919620 [kcal/mol]       0.45687690 [kJ/mol]
      Disp22 (T)                   -0.71589843 [mEh]      -0.44923305 [kcal/mol]      -1.87959107 [kJ/mol]
      Est. Disp22 (T)              -0.84686025 [mEh]      -0.53141283 [kcal/mol]      -2.22343128 [kJ/mol]
      Exch-Disp20                   1.38885434 [mEh]       0.87151926 [kcal/mol]       3.64643657 [kJ/mol]

  Total HF                          8.41074128 [mEh]       5.27781984 [kcal/mol]      22.08239820 [kJ/mol]
  Total SAPT0                       3.45776879 [mEh]       2.16978267 [kcal/mol]       9.07837070 [kJ/mol]
  Total SAPT2                       4.27743540 [mEh]       2.68413124 [kcal/mol]      11.23040510 [kJ/mol]
  Total SAPT2+                      3.77579078 [mEh]       2.36934448 [kcal/mol]       9.91333732 [kJ/mol]

  Special recipe for scaled SAPT0 (see Manual):
    Electrostatics sSAPT0          -8.77000089 [mEh]      -5.50325865 [kcal/mol]     -23.02563417 [kJ/mol]
    Exchange sSAPT0                20.77138341 [mEh]      13.03423987 [kcal/mol]      54.53525963 [kJ/mol]
    Induction sSAPT0               -3.36433855 [mEh]      -2.11115431 [kcal/mol]      -8.83306965 [kJ/mol]
    Dispersion sSAPT0              -4.89229550 [mEh]      -3.06996177 [kcal/mol]     -12.84472005 [kJ/mol]
  Total sSAPT0                      3.74474847 [mEh]       2.34986514 [kcal/mol]       9.83183576 [kJ/mol]
  --------------------------------------------------------------------------------------------------------

*** Psi4 exiting successfully. Buy a developer a beer!
