                               Psi4 1.4a2.dev224

  ==> Input File <==

--------------------------------------------------------------------------
#Generated by lconvert.py for sapt job

memory 50 GB

molecule  {
0 1
  C       1.291260   -0.666910   -0.014690
  H       1.586310   -1.228550    0.860100
  H       1.000950   -1.228630   -0.891020
  C       1.291170    0.666930   -0.014690
  H       1.000800    1.228600   -0.891030
  H       1.586160    1.228620    0.860080
--
0 1
  O      -3.747550    0.000010    0.006430
  H      -2.807480    0.000100    0.209810
  H      -4.165610   -0.000000    0.869230
units angstrom
no_reorient
symmetry c1
}

set {
scf_type DF
basis aug-cc-pvtz
freeze_core True
guess SAD
}
energy('sapt2+')
--------------------------------------------------------------------------

  //              Dimer HF             //
    Molecular point group: c1
  Charge       = 0
  Multiplicity = 1
  Basis Set: AUG-CC-PVTZ
    Blend: AUG-CC-PVTZ
  Basis Set: (AUG-CC-PVTZ AUX)
    Blend: AUG-CC-PVTZ-JKFIT
  @DF-RHF Final Energy:  -154.12582648882659
    Total Energy =                       -154.1258264888265899
  //            Monomer A HF           //
    Molecular point group: c1
  Multiplicity = 1
  Basis Set: AUG-CC-PVTZ
    Blend: AUG-CC-PVTZ
  Basis Set: (AUG-CC-PVTZ AUX)
    Blend: AUG-CC-PVTZ-JKFIT
  @DF-RHF Final Energy:   -78.06466640387323
    Total Energy =                        -78.0646664038732325
  //            Monomer B HF           //
    Molecular point group: c1

    Geometry (in Angstrom), charge = 0, multiplicity = 1:

       Center              X                  Y                   Z               Mass
    ------------   -----------------  -----------------  -----------------  -----------------
      Gh(C)           1.959467698000    -0.666921751145    -0.031531556965    12.000000000000
      Gh(H)           2.254517698000    -1.228561751145     0.843258443035     1.007825032230
      Gh(H)           1.669157698000    -1.228641751145    -0.907861556965     1.007825032230
      Gh(C)           1.959377698000     0.666918248855    -0.031531556965    12.000000000000
      Gh(H)           1.669007698000     1.228588248855    -0.907871556965     1.007825032230
      Gh(H)           2.254367698000     1.228608248855     0.843238443035     1.007825032230
         O           -3.079342302000    -0.000001751145    -0.010411556965    15.994914619570
         H           -2.139272302000     0.000088248855     0.192968443035     1.007825032230
         H           -3.497402302000    -0.000011751145     0.852388443035     1.007825032230

  Charge       = 0
  Multiplicity = 1
  Basis Set: AUG-CC-PVTZ
    Blend: AUG-CC-PVTZ
  Basis Set: (AUG-CC-PVTZ AUX)
    Blend: AUG-CC-PVTZ-JKFIT

    Orbital Energies [Eh]
    ---------------------

    Doubly Occupied:

       1A    -20.568130     2A     -1.352672     3A     -0.714495
       4A     -0.586068     5A     -0.510369

  @DF-RHF Final Energy:   -76.06032100504764

   => Energetics <=

    Nuclear Repulsion Energy =              9.1675460637464283
    One-Electron Energy =                -122.9922629255943036
    Two-Electron Energy =                  37.7643958568002347
    Total Energy =                        -76.0603210050476406

  Dipole Moment: [D]
     X:     0.8782      Y:     0.0001      Z:     1.7967     Total:     1.9999

    SAPT Results
  --------------------------------------------------------------------------------------------------------
    Electrostatics                 -0.69312816 [mEh]      -0.43494449 [kcal/mol]      -1.81980773 [kJ/mol]
      Elst10,r                     -0.81924260 [mEh]      -0.51408249 [kcal/mol]      -2.15092114 [kJ/mol]
      Elst12,r                      0.12611444 [mEh]       0.07913801 [kcal/mol]       0.33111342 [kJ/mol]

    Exchange                        0.03813200 [mEh]       0.02392819 [kcal/mol]       0.10011556 [kJ/mol]
      Exch10                        0.03886432 [mEh]       0.02438773 [kcal/mol]       0.10203825 [kJ/mol]
      Exch10(S^2)                   0.03886225 [mEh]       0.02438643 [kcal/mol]       0.10203283 [kJ/mol]
      Exch11(S^2)                   0.00171051 [mEh]       0.00107336 [kcal/mol]       0.00449095 [kJ/mol]
      Exch12(S^2)                  -0.00244283 [mEh]      -0.00153290 [kcal/mol]      -0.00641364 [kJ/mol]

    Induction                      -0.05379609 [mEh]      -0.03375755 [kcal/mol]      -0.14124160 [kJ/mol]
      Ind20,r                      -0.06446014 [mEh]      -0.04044935 [kcal/mol]      -0.16924008 [kJ/mol]
      Ind22                         0.00595374 [mEh]       0.00373603 [kcal/mol]       0.01563153 [kJ/mol]
      Exch-Ind20,r                  0.01134865 [mEh]       0.00712139 [kcal/mol]       0.02979588 [kJ/mol]
      Exch-Ind22                   -0.00104820 [mEh]      -0.00065775 [kcal/mol]      -0.00275204 [kJ/mol]
      delta HF,r (2)               -0.00559013 [mEh]      -0.00350786 [kcal/mol]      -0.01467689 [kJ/mol]

    Dispersion                     -0.23982860 [mEh]      -0.15049472 [kcal/mol]      -0.62966990 [kJ/mol]
      Disp20                       -0.23320912 [mEh]      -0.14634093 [kcal/mol]      -0.61229045 [kJ/mol]
      Disp21                        0.01368366 [mEh]       0.00858663 [kcal/mol]       0.03592645 [kJ/mol]
      Disp22 (SDQ)                  0.01820205 [mEh]       0.01142196 [kcal/mol]       0.04778947 [kJ/mol]
      Disp22 (T)                   -0.03985655 [mEh]      -0.02501036 [kcal/mol]      -0.10464335 [kJ/mol]
      Est. Disp22 (T)              -0.04333115 [mEh]      -0.02719071 [kcal/mol]      -0.11376591 [kJ/mol]
      Exch-Disp20                   0.00482596 [mEh]       0.00302833 [kcal/mol]       0.01267054 [kJ/mol]

  Total HF                         -0.83907991 [mEh]      -0.52653059 [kcal/mol]      -2.20300399 [kJ/mol]
  Total SAPT0                      -1.06746307 [mEh]      -0.66984319 [kcal/mol]      -2.80262389 [kJ/mol]
  Total SAPT2                      -0.93717540 [mEh]      -0.58808644 [kcal/mol]      -2.46055367 [kJ/mol]
  Total SAPT2+                     -0.94862084 [mEh]      -0.59526856 [kcal/mol]      -2.49060366 [kJ/mol]

  Special recipe for scaled SAPT0 (see Manual):
    Electrostatics sSAPT0          -0.81924260 [mEh]      -0.51408249 [kcal/mol]      -2.15092114 [kJ/mol]
    Exchange sSAPT0                 0.03886432 [mEh]       0.02438773 [kcal/mol]       0.10203825 [kJ/mol]
    Induction sSAPT0               -0.05869982 [mEh]      -0.03683469 [kcal/mol]      -0.15411635 [kJ/mol]
    Dispersion sSAPT0              -0.22838239 [mEh]      -0.14331211 [kcal/mol]      -0.59961788 [kJ/mol]
  Total sSAPT0                     -1.06746049 [mEh]      -0.66984157 [kcal/mol]      -2.80261713 [kJ/mol]
  --------------------------------------------------------------------------------------------------------

*** Psi4 exiting successfully. Buy a developer a beer!
