                               Psi4 1.4a2.dev224

  ==> Input File <==

--------------------------------------------------------------------------
#Generated by lconvert.py for sapt job

memory 50 GB

molecule  {
0 1
  C       1.291260   -0.666910   -0.014690
  H       1.586310   -1.228550    0.860100
  H       1.000950   -1.228630   -0.891020
  C       1.291170    0.666930   -0.014690
  H       1.000800    1.228600   -0.891030
  H       1.586160    1.228620    0.860080
--
0 1
  O      -2.383180   -0.000020   -0.068330
  H      -1.443100    0.000070    0.135040
  H      -2.801230   -0.000030    0.794470
units angstrom
no_reorient
symmetry c1
}

set {
scf_type DF
basis aug-cc-pvtz
freeze_core True
guess SAD
}
energy('sapt2+')
--------------------------------------------------------------------------

  //              Dimer HF             //
    Molecular point group: c1
  Charge       = 0
  Multiplicity = 1
  Basis Set: AUG-CC-PVTZ
    Blend: AUG-CC-PVTZ
  Basis Set: (AUG-CC-PVTZ AUX)
    Blend: AUG-CC-PVTZ-JKFIT
  @DF-RHF Final Energy:  -154.12716925307762
    Total Energy =                       -154.1271692530776249
  //            Monomer A HF           //
    Molecular point group: c1
  Multiplicity = 1
  Basis Set: AUG-CC-PVTZ
    Blend: AUG-CC-PVTZ
  Basis Set: (AUG-CC-PVTZ AUX)
    Blend: AUG-CC-PVTZ-JKFIT
  @DF-RHF Final Energy:   -78.06470948464150
    Total Energy =                        -78.0647094846414973
  //            Monomer B HF           //
    Molecular point group: c1

    Geometry (in Angstrom), charge = 0, multiplicity = 1:

       Center              X                  Y                   Z               Mass
    ------------   -----------------  -----------------  -----------------  -----------------
      Gh(C)           1.425755729680    -0.666910015805    -0.002286870646    12.000000000000
      Gh(H)           1.720805729680    -1.228550015805     0.872503129354     1.007825032230
      Gh(H)           1.135445729680    -1.228630015805    -0.878616870646     1.007825032230
      Gh(C)           1.425665729680     0.666929984195    -0.002286870646    12.000000000000
      Gh(H)           1.135295729680     1.228599984195    -0.878626870646     1.007825032230
      Gh(H)           1.720655729680     1.228619984195     0.872483129354     1.007825032230
         O           -2.248684270320    -0.000020015805    -0.055926870646    15.994914619570
         H           -1.308604270320     0.000069984195     0.147443129354     1.007825032230
         H           -2.666734270320    -0.000030015805     0.806873129354     1.007825032230

  Charge       = 0
  Multiplicity = 1
  Basis Set: AUG-CC-PVTZ
    Blend: AUG-CC-PVTZ
  Basis Set: (AUG-CC-PVTZ AUX)
    Blend: AUG-CC-PVTZ-JKFIT

    Orbital Energies [Eh]
    ---------------------

    Doubly Occupied:

       1A    -20.568098     2A     -1.352637     3A     -0.714463
       4A     -0.586032     5A     -0.510362

  @DF-RHF Final Energy:   -76.06035263357977

   => Energetics <=

    Nuclear Repulsion Energy =              9.1675300813138776
    One-Electron Energy =                -122.9925796868398464
    Two-Electron Energy =                  37.7646969719461936
    Total Energy =                        -76.0603526335797824

  Dipole Moment: [D]
     X:     0.8786      Y:     0.0001      Z:     1.7967     Total:     2.0000

    SAPT Results
  --------------------------------------------------------------------------------------------------------
    Electrostatics                 -3.32622280 [mEh]      -2.08723632 [kcal/mol]      -8.73299677 [kJ/mol]
      Elst10,r                     -3.83708161 [mEh]      -2.40780506 [kcal/mol]     -10.07425637 [kJ/mol]
      Elst12,r                      0.51085880 [mEh]       0.32056874 [kcal/mol]       1.34125961 [kJ/mol]

    Exchange                        2.71374512 [mEh]       1.70290077 [kcal/mol]       7.12493683 [kJ/mol]
      Exch10                        2.70390670 [mEh]       1.69672707 [kcal/mol]       7.09910605 [kJ/mol]
      Exch10(S^2)                   2.69727498 [mEh]       1.69256560 [kcal/mol]       7.08169447 [kJ/mol]
      Exch11(S^2)                   0.11968695 [mEh]       0.07510469 [kcal/mol]       0.31423803 [kJ/mol]
      Exch12(S^2)                  -0.10984852 [mEh]      -0.06893099 [kcal/mol]      -0.28840726 [kJ/mol]

    Induction                      -0.93661115 [mEh]      -0.58773237 [kcal/mol]      -2.45907223 [kJ/mol]
      Ind20,r                      -1.53906131 [mEh]      -0.96577555 [kcal/mol]      -4.04080490 [kJ/mol]
      Ind22                         0.09141377 [mEh]       0.05736301 [kcal/mol]       0.24000682 [kJ/mol]
      Exch-Ind20,r                  0.91024917 [mEh]       0.57118998 [kcal/mol]       2.38985886 [kJ/mol]
      Exch-Ind22                   -0.05406497 [mEh]      -0.03392628 [kcal/mol]      -0.14194756 [kJ/mol]
      delta HF,r (2)               -0.34514780 [mEh]      -0.21658352 [kcal/mol]      -0.90618543 [kJ/mol]

    Dispersion                     -2.00607739 [mEh]      -1.25883257 [kcal/mol]      -5.26695546 [kJ/mol]
      Disp20                       -2.13953427 [mEh]      -1.34257802 [kcal/mol]      -5.61734644 [kJ/mol]
      Disp21                        0.07810641 [mEh]       0.04901251 [kcal/mol]       0.20506835 [kJ/mol]
      Disp22 (SDQ)                  0.17144562 [mEh]       0.10758375 [kcal/mol]       0.45013041 [kJ/mol]
      Disp22 (T)                   -0.32365209 [mEh]      -0.20309475 [kcal/mol]      -0.84974844 [kJ/mol]
      Est. Disp22 (T)              -0.37400045 [mEh]      -0.23468883 [kcal/mol]      -0.98193805 [kJ/mol]
      Exch-Disp20                   0.25790530 [mEh]       0.16183802 [kcal/mol]       0.67713028 [kJ/mol]

  Total HF                         -2.10713486 [mEh]      -1.32224708 [kcal/mol]      -5.53228180 [kJ/mol]
  Total SAPT0                      -3.98876382 [mEh]      -2.50298709 [kcal/mol]     -10.47249797 [kJ/mol]
  Total SAPT2                      -3.43071780 [mEh]      -2.15280792 [kcal/mol]      -9.00734833 [kJ/mol]
  Total SAPT2+                     -3.55516622 [mEh]      -2.23090049 [kcal/mol]      -9.33408763 [kJ/mol]

  Special recipe for scaled SAPT0 (see Manual):
    Electrostatics sSAPT0          -3.83708161 [mEh]      -2.40780506 [kcal/mol]     -10.07425637 [kJ/mol]
    Exchange sSAPT0                 2.70390670 [mEh]       1.69672707 [kcal/mol]       7.09910605 [kJ/mol]
    Induction sSAPT0               -0.96722940 [mEh]      -0.60694561 [kcal/mol]      -2.53946045 [kJ/mol]
    Dispersion sSAPT0              -1.87972197 [mEh]      -1.17954334 [kcal/mol]      -4.93520935 [kJ/mol]
  Total sSAPT0                     -3.98012628 [mEh]      -2.49756695 [kcal/mol]     -10.44982012 [kJ/mol]
  --------------------------------------------------------------------------------------------------------

*** Psi4 exiting successfully. Buy a developer a beer!
