                               Psi4 1.4a2.dev224

  ==> Input File <==

--------------------------------------------------------------------------
#Generated by lconvert.py for sapt job

memory 50 GB

molecule  {
0 1
  C       1.291260   -0.666910   -0.014690
  H       1.586310   -1.228550    0.860100
  H       1.000950   -1.228630   -0.891020
  C       1.291170    0.666930   -0.014690
  H       1.000800    1.228600   -0.891030
  H       1.586160    1.228620    0.860080
--
0 1
  O      -2.251330   -0.000020   -0.075560
  H      -1.311260    0.000070    0.127820
  H      -2.669390   -0.000040    0.787240
units angstrom
no_reorient
symmetry c1
}

set {
scf_type DF
basis aug-cc-pvtz
freeze_core True
guess SAD
}
energy('sapt2+')
--------------------------------------------------------------------------

  //              Dimer HF             //
    Molecular point group: c1
  Charge       = 0
  Multiplicity = 1
  Basis Set: AUG-CC-PVTZ
    Blend: AUG-CC-PVTZ
  Basis Set: (AUG-CC-PVTZ AUX)
    Blend: AUG-CC-PVTZ-JKFIT
  @DF-RHF Final Energy:  -154.12706813144445
    Total Energy =                       -154.1270681314444460
  //            Monomer A HF           //
    Molecular point group: c1
  Multiplicity = 1
  Basis Set: AUG-CC-PVTZ
    Blend: AUG-CC-PVTZ
  Basis Set: (AUG-CC-PVTZ AUX)
    Blend: AUG-CC-PVTZ-JKFIT
  @DF-RHF Final Energy:   -78.06471792717070
    Total Energy =                        -78.0647179271707046
  //            Monomer B HF           //
    Molecular point group: c1

    Geometry (in Angstrom), charge = 0, multiplicity = 1:

       Center              X                  Y                   Z               Mass
    ------------   -----------------  -----------------  -----------------  -----------------
      Gh(C)           1.374179347908    -0.666909796912     0.000541127415    12.000000000000
      Gh(H)           1.669229347908    -1.228549796912     0.875331127415     1.007825032230
      Gh(H)           1.083869347908    -1.228629796912    -0.875788872585     1.007825032230
      Gh(C)           1.374089347908     0.666930203088     0.000541127415    12.000000000000
      Gh(H)           1.083719347908     1.228600203088    -0.875798872585     1.007825032230
      Gh(H)           1.669079347908     1.228620203088     0.875311127415     1.007825032230
         O           -2.168410652092    -0.000019796912    -0.060328872585    15.994914619570
         H           -1.228340652092     0.000070203088     0.143051127415     1.007825032230
         H           -2.586470652092    -0.000039796912     0.802471127415     1.007825032230

  Charge       = 0
  Multiplicity = 1
  Basis Set: AUG-CC-PVTZ
    Blend: AUG-CC-PVTZ
  Basis Set: (AUG-CC-PVTZ AUX)
    Blend: AUG-CC-PVTZ-JKFIT

    Orbital Energies [Eh]
    ---------------------

    Doubly Occupied:

       1A    -20.568089     2A     -1.352631     3A     -0.714457
       4A     -0.586025     5A     -0.510360

  @DF-RHF Final Energy:   -76.06035955577741

   => Energetics <=

    Nuclear Repulsion Energy =              9.1675460628644068
    One-Electron Energy =                -122.9926824242072172
    Two-Electron Energy =                  37.7647768055654041
    Total Energy =                        -76.0603595557774099

  Dipole Moment: [D]
     X:     0.8786      Y:     0.0001      Z:     1.7966     Total:     2.0000

    SAPT Results
  --------------------------------------------------------------------------------------------------------
    Electrostatics                 -4.10004051 [mEh]      -2.57281426 [kcal/mol]     -10.76465486 [kJ/mol]
      Elst10,r                     -4.69475220 [mEh]      -2.94600148 [kcal/mol]     -12.32607019 [kJ/mol]
      Elst12,r                      0.59471169 [mEh]       0.37318722 [kcal/mol]       1.56141533 [kJ/mol]

    Exchange                        4.06553497 [mEh]       2.55116171 [kcal/mol]      10.67406059 [kJ/mol]
      Exch10                        4.04408339 [mEh]       2.53770064 [kcal/mol]      10.61773948 [kJ/mol]
      Exch10(S^2)                   4.02993800 [mEh]       2.52882427 [kcal/mol]      10.58060076 [kJ/mol]
      Exch11(S^2)                   0.17669398 [mEh]       0.11087714 [kcal/mol]       0.46390997 [kJ/mol]
      Exch12(S^2)                  -0.15524240 [mEh]      -0.09741607 [kcal/mol]      -0.40758886 [kJ/mol]

    Induction                      -1.29573953 [mEh]      -0.81308883 [kcal/mol]      -3.40196368 [kJ/mol]
      Ind20,r                      -2.20925523 [mEh]      -1.38632858 [kcal/mol]      -5.80039880 [kJ/mol]
      Ind22                         0.11835718 [mEh]       0.07427025 [kcal/mol]       0.31074674 [kJ/mol]
      Exch-Ind20,r                  1.38346844 [mEh]       0.86813955 [kcal/mol]       3.63229589 [kJ/mol]
      Exch-Ind22                   -0.07411703 [mEh]      -0.04650914 [kcal/mol]      -0.19459423 [kJ/mol]
      delta HF,r (2)               -0.51419290 [mEh]      -0.32266092 [kcal/mol]      -1.35001328 [kJ/mol]

    Dispersion                     -2.51472334 [mEh]      -1.57801272 [kcal/mol]      -6.60240521 [kJ/mol]
      Disp20                       -2.73663830 [mEh]      -1.71726646 [kcal/mol]      -7.18504287 [kJ/mol]
      Disp21                        0.10379874 [mEh]       0.06513469 [kcal/mol]       0.27252355 [kJ/mol]
      Disp22 (SDQ)                  0.21709332 [mEh]       0.13622811 [kcal/mol]       0.56997843 [kJ/mol]
      Disp22 (T)                   -0.40898042 [mEh]      -0.25663909 [kcal/mol]      -1.07377796 [kJ/mol]
      Est. Disp22 (T)              -0.47186587 [mEh]      -0.29610030 [kcal/mol]      -1.23888366 [kJ/mol]
      Exch-Disp20                   0.37288877 [mEh]       0.23399124 [kcal/mol]       0.97901934 [kJ/mol]

  Total HF                         -1.99064850 [mEh]      -1.24915079 [kcal/mol]      -5.22644691 [kJ/mol]
  Total SAPT0                      -4.35439802 [mEh]      -2.73242601 [kcal/mol]     -11.43247044 [kJ/mol]
  Total SAPT2                      -3.69399460 [mEh]      -2.31801660 [kcal/mol]      -9.69858147 [kJ/mol]
  Total SAPT2+                     -3.84496840 [mEh]      -2.41275410 [kcal/mol]     -10.09496315 [kJ/mol]

  Special recipe for scaled SAPT0 (see Manual):
    Electrostatics sSAPT0          -4.69475220 [mEh]      -2.94600148 [kcal/mol]     -12.32607019 [kJ/mol]
    Exchange sSAPT0                 4.04408339 [mEh]       2.53770064 [kcal/mol]      10.61773948 [kJ/mol]
    Induction sSAPT0               -1.32536025 [mEh]      -0.83167611 [kcal/mol]      -3.47973286 [kJ/mol]
    Dispersion sSAPT0              -2.35980912 [mEh]      -1.48080258 [kcal/mol]      -6.19567800 [kJ/mol]
  Total sSAPT0                     -4.33583818 [mEh]      -2.72077954 [kcal/mol]     -11.38374158 [kJ/mol]
  --------------------------------------------------------------------------------------------------------

*** Psi4 exiting successfully. Buy a developer a beer!
