                               Psi4 1.4a2.dev224

  ==> Input File <==

--------------------------------------------------------------------------
#Generated by lconvert.py for sapt job

memory 50 GB

molecule  {
0 1
  C       1.291260   -0.666910   -0.014690
  H       1.586310   -1.228550    0.860100
  H       1.000950   -1.228630   -0.891020
  C       1.291170    0.666930   -0.014690
  H       1.000800    1.228600   -0.891030
  H       1.586160    1.228620    0.860080
--
0 1
  O      -2.119080   -0.000030   -0.082800
  H      -1.179010    0.000070    0.120570
  H      -2.537140   -0.000040    0.780000
units angstrom
no_reorient
symmetry c1
}

set {
scf_type DF
basis aug-cc-pvtz
freeze_core True
guess SAD
}
energy('sapt2+')
--------------------------------------------------------------------------

  //              Dimer HF             //
    Molecular point group: c1
  Charge       = 0
  Multiplicity = 1
  Basis Set: AUG-CC-PVTZ
    Blend: AUG-CC-PVTZ
  Basis Set: (AUG-CC-PVTZ AUX)
    Blend: AUG-CC-PVTZ-JKFIT
  @DF-RHF Final Energy:  -154.12672851310856
    Total Energy =                       -154.1267285131085600
  //            Monomer A HF           //
    Molecular point group: c1
  Multiplicity = 1
  Basis Set: AUG-CC-PVTZ
    Blend: AUG-CC-PVTZ
  Basis Set: (AUG-CC-PVTZ AUX)
    Blend: AUG-CC-PVTZ-JKFIT
  @DF-RHF Final Energy:   -78.06472574726735
    Total Energy =                        -78.0647257472673459
  //            Monomer B HF           //
    Molecular point group: c1

    Geometry (in Angstrom), charge = 0, multiplicity = 1:

       Center              X                  Y                   Z               Mass
    ------------   -----------------  -----------------  -----------------  -----------------
      Gh(C)           1.322446057149    -0.666906322919     0.003373475043    12.000000000000
      Gh(H)           1.617496057149    -1.228546322919     0.878163475043     1.007825032230
      Gh(H)           1.032136057149    -1.228626322919    -0.872956524957     1.007825032230
      Gh(C)           1.322356057149     0.666933677081     0.003373475043    12.000000000000
      Gh(H)           1.031986057149     1.228603677081    -0.872966524957     1.007825032230
      Gh(H)           1.617346057149     1.228623677081     0.878143475043     1.007825032230
         O           -2.087893942851    -0.000026322919    -0.064736524957    15.994914619570
         H           -1.147823942851     0.000073677081     0.138633475043     1.007825032230
         H           -2.505953942851    -0.000036322919     0.798063475043     1.007825032230

  Charge       = 0
  Multiplicity = 1
  Basis Set: AUG-CC-PVTZ
    Blend: AUG-CC-PVTZ
  Basis Set: (AUG-CC-PVTZ AUX)
    Blend: AUG-CC-PVTZ-JKFIT

    Orbital Energies [Eh]
    ---------------------

    Doubly Occupied:

       1A    -20.568079     2A     -1.352623     3A     -0.714452
       4A     -0.586017     5A     -0.510358

  @DF-RHF Final Energy:   -76.06036686445040

   => Energetics <=

    Nuclear Repulsion Energy =              9.1675547213706601
    One-Electron Energy =                -122.9927820710866087
    Two-Electron Energy =                  37.7648604852655509
    Total Energy =                        -76.0603668644504012

  Dipole Moment: [D]
     X:     0.8787      Y:     0.0002      Z:     1.7965     Total:     1.9999

    SAPT Results
  --------------------------------------------------------------------------------------------------------
    Electrostatics                 -5.12793650 [mEh]      -3.21782874 [kcal/mol]     -13.46339543 [kJ/mol]
      Elst10,r                     -5.82107480 [mEh]      -3.65277958 [kcal/mol]     -15.28322978 [kJ/mol]
      Elst12,r                      0.69313830 [mEh]       0.43495085 [kcal/mol]       1.81983435 [kJ/mol]

    Exchange                        6.08454493 [mEh]       3.81810959 [kcal/mol]      15.97497051 [kJ/mol]
      Exch10                        6.04418637 [mEh]       3.79278421 [kcal/mol]      15.86900913 [kJ/mol]
      Exch10(S^2)                   6.01411503 [mEh]       3.77391416 [kcal/mol]      15.79005684 [kJ/mol]
      Exch11(S^2)                   0.25918087 [mEh]       0.16263845 [kcal/mol]       0.68047929 [kJ/mol]
      Exch12(S^2)                  -0.21882231 [mEh]      -0.13731308 [kcal/mol]      -0.57451791 [kJ/mol]

    Induction                      -1.80722462 [mEh]      -1.13405057 [kcal/mol]      -4.74486758 [kJ/mol]
      Ind20,r                      -3.19693490 [mEh]      -2.00610694 [kcal/mol]      -8.39355142 [kJ/mol]
      Ind22                         0.15132550 [mEh]       0.09495819 [kcal/mol]       0.39730505 [kJ/mol]
      Exch-Ind20,r                  2.10284325 [mEh]       1.31955406 [kcal/mol]       5.52101420 [kJ/mol]
      Exch-Ind22                   -0.09953716 [mEh]      -0.06246051 [kcal/mol]      -0.26133477 [kJ/mol]
      delta HF,r (2)               -0.76492132 [mEh]      -0.47999537 [kcal/mol]      -2.00830064 [kJ/mol]

    Dispersion                     -3.16189286 [mEh]      -1.98411773 [kcal/mol]      -8.30154857 [kJ/mol]
      Disp20                       -3.51903864 [mEh]      -2.20823009 [kcal/mol]      -9.23923468 [kJ/mol]
      Disp21                        0.14208492 [mEh]       0.08915963 [kcal/mol]       0.37304390 [kJ/mol]
      Disp22 (SDQ)                  0.27532391 [mEh]       0.17276836 [kcal/mol]       0.72286282 [kJ/mol]
      Disp22 (T)                   -0.51401182 [mEh]      -0.32254729 [kcal/mol]      -1.34953786 [kJ/mol]
      Est. Disp22 (T)              -0.59761403 [mEh]      -0.37500846 [kcal/mol]      -1.56903542 [kJ/mol]
      Exch-Disp20                   0.53735098 [mEh]       0.33719283 [kcal/mol]       1.41081480 [kJ/mol]

  Total HF                         -1.63590139 [mEh]      -1.02654362 [kcal/mol]      -4.29505851 [kJ/mol]
  Total SAPT0                      -4.61758905 [mEh]      -2.89758088 [kcal/mol]     -12.12347839 [kJ/mol]
  Total SAPT2                      -3.83230385 [mEh]      -2.40480697 [kcal/mol]     -10.06171237 [kJ/mol]
  Total SAPT2+                     -4.01250905 [mEh]      -2.51788744 [kcal/mol]     -10.53484106 [kJ/mol]

  Special recipe for scaled SAPT0 (see Manual):
    Electrostatics sSAPT0          -5.82107480 [mEh]      -3.65277958 [kcal/mol]     -15.28322978 [kJ/mol]
    Exchange sSAPT0                 6.04418637 [mEh]       3.79278421 [kcal/mol]      15.86900913 [kJ/mol]
    Induction sSAPT0               -1.82731153 [mEh]      -1.14665529 [kcal/mol]      -4.79760575 [kJ/mol]
    Dispersion sSAPT0              -2.97358682 [mEh]      -1.86595390 [kcal/mol]      -7.80715113 [kJ/mol]
  Total sSAPT0                     -4.57778678 [mEh]      -2.87260457 [kcal/mol]     -12.01897753 [kJ/mol]
  --------------------------------------------------------------------------------------------------------

*** Psi4 exiting successfully. Buy a developer a beer!
