                               Psi4 1.4a2.dev224

  ==> Input File <==

--------------------------------------------------------------------------
#Generated by lconvert.py for sapt job

memory 50 GB

molecule  {
0 1
  C       1.291260   -0.666910   -0.014690
  H       1.586310   -1.228550    0.860100
  H       1.000950   -1.228630   -0.891020
  C       1.291170    0.666930   -0.014690
  H       1.000800    1.228600   -0.891030
  H       1.586160    1.228620    0.860080
--
0 1
  O      -2.928930   -0.000010   -0.038430
  H      -1.988850    0.000090    0.164950
  H      -3.346980   -0.000020    0.824370
units angstrom
no_reorient
symmetry c1
}

set {
scf_type DF
basis aug-cc-pvtz
freeze_core True
guess SAD
}
energy('sapt2+')
--------------------------------------------------------------------------

  //              Dimer HF             //
    Molecular point group: c1
  Charge       = 0
  Multiplicity = 1
  Basis Set: AUG-CC-PVTZ
    Blend: AUG-CC-PVTZ
  Basis Set: (AUG-CC-PVTZ AUX)
    Blend: AUG-CC-PVTZ-JKFIT
  @DF-RHF Final Energy:  -154.12667236073813
    Total Energy =                       -154.1266723607381266
  //            Monomer A HF           //
    Molecular point group: c1
  Multiplicity = 1
  Basis Set: AUG-CC-PVTZ
    Blend: AUG-CC-PVTZ
  Basis Set: (AUG-CC-PVTZ AUX)
    Blend: AUG-CC-PVTZ-JKFIT
  @DF-RHF Final Energy:   -78.06468843111192
    Total Energy =                        -78.0646884311119180
  //            Monomer B HF           //
    Molecular point group: c1

    Geometry (in Angstrom), charge = 0, multiplicity = 1:

       Center              X                  Y                   Z               Mass
    ------------   -----------------  -----------------  -----------------  -----------------
      Gh(C)           1.639241124250    -0.666914146479    -0.013983311797    12.000000000000
      Gh(H)           1.934291124250    -1.228554146479     0.860806688203     1.007825032230
      Gh(H)           1.348931124250    -1.228634146479    -0.890313311797     1.007825032230
      Gh(C)           1.639151124250     0.666925853521    -0.013983311797    12.000000000000
      Gh(H)           1.348781124250     1.228595853521    -0.890323311797     1.007825032230
      Gh(H)           1.934141124250     1.228615853521     0.860786688203     1.007825032230
         O           -2.580948875750    -0.000014146479    -0.037723311797    15.994914619570
         H           -1.640868875750     0.000085853521     0.165656688203     1.007825032230
         H           -2.998998875750    -0.000024146479     0.825076688203     1.007825032230

  Charge       = 0
  Multiplicity = 1
  Basis Set: AUG-CC-PVTZ
    Blend: AUG-CC-PVTZ
  Basis Set: (AUG-CC-PVTZ AUX)
    Blend: AUG-CC-PVTZ-JKFIT

    Orbital Energies [Eh]
    ---------------------

    Doubly Occupied:

       1A    -20.568120     2A     -1.352659     3A     -0.714481
       4A     -0.586055     5A     -0.510367

  @DF-RHF Final Energy:   -76.06033194048069

   => Energetics <=

    Nuclear Repulsion Energy =              9.1675214146218806
    One-Electron Energy =                -122.9923412422154314
    Two-Electron Energy =                  37.7644878871128782
    Total Energy =                        -76.0603319404806797

  Dipole Moment: [D]
     X:     0.8784      Y:     0.0002      Z:     1.7968     Total:     2.0001

    SAPT Results
  --------------------------------------------------------------------------------------------------------
    Electrostatics                 -1.59211539 [mEh]      -0.99906749 [kcal/mol]      -4.18009839 [kJ/mol]
      Elst10,r                     -1.87136172 [mEh]      -1.17429721 [kcal/mol]      -4.91325951 [kJ/mol]
      Elst12,r                      0.27924632 [mEh]       0.17522971 [kcal/mol]       0.73316112 [kJ/mol]

    Exchange                        0.50043311 [mEh]       0.31402652 [kcal/mol]       1.31388695 [kJ/mol]
      Exch10                        0.50271774 [mEh]       0.31546014 [kcal/mol]       1.31988524 [kJ/mol]
      Exch10(S^2)                   0.50244341 [mEh]       0.31528800 [kcal/mol]       1.31916499 [kJ/mol]
      Exch11(S^2)                   0.02260290 [mEh]       0.01418354 [kcal/mol]       0.05934391 [kJ/mol]
      Exch12(S^2)                  -0.02488753 [mEh]      -0.01561716 [kcal/mol]      -0.06534220 [kJ/mol]

    Induction                      -0.26632673 [mEh]      -0.16712254 [kcal/mol]      -0.69924073 [kJ/mol]
      Ind20,r                      -0.37524162 [mEh]      -0.23546767 [kcal/mol]      -0.98519673 [kJ/mol]
      Ind22                         0.02944303 [mEh]       0.01847578 [kcal/mol]       0.07730267 [kJ/mol]
      Exch-Ind20,r                  0.15834727 [mEh]       0.09936441 [kcal/mol]       0.41574070 [kJ/mol]
      Exch-Ind22                   -0.01242459 [mEh]      -0.00779655 [kcal/mol]      -0.03262076 [kJ/mol]
      delta HF,r (2)               -0.06645082 [mEh]      -0.04169852 [kcal/mol]      -0.17446660 [kJ/mol]

    Dispersion                     -0.81250143 [mEh]      -0.50985234 [kcal/mol]      -2.13322221 [kJ/mol]
      Disp20                       -0.81639931 [mEh]      -0.51229830 [kcal/mol]      -2.14345609 [kJ/mol]
      Disp21                        0.03231802 [mEh]       0.02027986 [kcal/mol]       0.08485095 [kJ/mol]
      Disp22 (SDQ)                  0.06611251 [mEh]       0.04148623 [kcal/mol]       0.17357837 [kJ/mol]
      Disp22 (T)                   -0.13088243 [mEh]      -0.08212997 [kcal/mol]      -0.34363178 [kJ/mol]
      Est. Disp22 (T)              -0.14859433 [mEh]      -0.09324435 [kcal/mol]      -0.39013436 [kJ/mol]
      Exch-Disp20                   0.05406168 [mEh]       0.03392422 [kcal/mol]       0.14193892 [kJ/mol]

  Total HF                         -1.65198915 [mEh]      -1.03663884 [kcal/mol]      -4.33729690 [kJ/mol]
  Total SAPT0                      -2.41432678 [mEh]      -1.51501292 [kcal/mol]      -6.33881408 [kJ/mol]
  Total SAPT2                      -2.12034664 [mEh]      -1.33053760 [kcal/mol]      -5.56696933 [kJ/mol]
  Total SAPT2+                     -2.17051044 [mEh]      -1.36201586 [kcal/mol]      -5.69867437 [kJ/mol]

  Special recipe for scaled SAPT0 (see Manual):
    Electrostatics sSAPT0          -1.87136172 [mEh]      -1.17429721 [kcal/mol]      -4.91325951 [kJ/mol]
    Exchange sSAPT0                 0.50271774 [mEh]       0.31546014 [kcal/mol]       1.31988524 [kJ/mol]
    Induction sSAPT0               -0.28308566 [mEh]      -0.17763893 [kcal/mol]      -0.74324129 [kJ/mol]
    Dispersion sSAPT0              -0.76224903 [mEh]      -0.47831849 [kcal/mol]      -2.00128455 [kJ/mol]
  Total sSAPT0                     -2.41397867 [mEh]      -1.51479448 [kcal/mol]      -6.33790012 [kJ/mol]
  --------------------------------------------------------------------------------------------------------

*** Psi4 exiting successfully. Buy a developer a beer!
