                               Psi4 1.4a2.dev224

  ==> Input File <==

--------------------------------------------------------------------------
#Generated by lconvert.py for sapt job

memory 50 GB

molecule  {
0 1
  C       1.291260   -0.666910   -0.014690
  H       1.586310   -1.228550    0.860100
  H       1.000950   -1.228630   -0.891020
  C       1.291170    0.666930   -0.014690
  H       1.000800    1.228600   -0.891030
  H       1.586160    1.228620    0.860080
--
0 1
  O      -1.584240   -0.000040   -0.112110
  H      -0.644170    0.000050    0.091270
  H      -2.002300   -0.000050    0.750690
units angstrom
no_reorient
symmetry c1
}

set {
scf_type DF
basis aug-cc-pvtz
freeze_core True
guess SAD
}
energy('sapt2+')
--------------------------------------------------------------------------

  //              Dimer HF             //
    Molecular point group: c1
  Charge       = 0
  Multiplicity = 1
  Basis Set: AUG-CC-PVTZ
    Blend: AUG-CC-PVTZ
  Basis Set: (AUG-CC-PVTZ AUX)
    Blend: AUG-CC-PVTZ-JKFIT
  @DF-RHF Final Energy:  -154.11852185471804
    Total Energy =                       -154.1185218547180398
  //            Monomer A HF           //
    Molecular point group: c1
  Multiplicity = 1
  Basis Set: AUG-CC-PVTZ
    Blend: AUG-CC-PVTZ
  Basis Set: (AUG-CC-PVTZ AUX)
    Blend: AUG-CC-PVTZ-JKFIT
  @DF-RHF Final Energy:   -78.06475428042496
    Total Energy =                        -78.0647542804249639
  //            Monomer B HF           //
    Molecular point group: c1

    Geometry (in Angstrom), charge = 0, multiplicity = 1:

       Center              X                  Y                   Z               Mass
    ------------   -----------------  -----------------  -----------------  -----------------
      Gh(C)           1.113228414581    -0.666902192245     0.014838683387    12.000000000000
      Gh(H)           1.408278414581    -1.228542192245     0.889628683387     1.007825032230
      Gh(H)           0.822918414581    -1.228622192245    -0.861491316613     1.007825032230
      Gh(C)           1.113138414581     0.666937807755     0.014838683387    12.000000000000
      Gh(H)           0.822768414581     1.228607807755    -0.861501316613     1.007825032230
      Gh(H)           1.408128414581     1.228627807755     0.889608683387     1.007825032230
         O           -1.762271585419    -0.000032192245    -0.082581316613    15.994914619570
         H           -0.822201585419     0.000057807755     0.120798683387     1.007825032230
         H           -2.180331585419    -0.000042192245     0.780218683387     1.007825032230

  Charge       = 0
  Multiplicity = 1
  Basis Set: AUG-CC-PVTZ
    Blend: AUG-CC-PVTZ
  Basis Set: (AUG-CC-PVTZ AUX)
    Blend: AUG-CC-PVTZ-JKFIT

    Orbital Energies [Eh]
    ---------------------

    Doubly Occupied:

       1A    -20.568026     2A     -1.352588     3A     -0.714418
       4A     -0.585989     5A     -0.510344

  @DF-RHF Final Energy:   -76.06040090576391

   => Energetics <=

    Nuclear Repulsion Energy =              9.1675460637464283
    One-Electron Energy =                -122.9931604823820663
    Two-Electron Energy =                  37.7652135128717248
    Total Energy =                        -76.0604009057639132

  Dipole Moment: [D]
     X:     0.8788      Y:     0.0001      Z:     1.7960     Total:     1.9995

    SAPT Results
  --------------------------------------------------------------------------------------------------------
    Electrostatics                -14.60575960 [mEh]      -9.16525252 [kcal/mol]     -38.34741653 [kJ/mol]
      Elst10,r                    -15.86137788 [mEh]      -9.95316488 [kcal/mol]     -41.64404188 [kJ/mol]
      Elst12,r                      1.25561828 [mEh]       0.78791237 [kcal/mol]       3.29662534 [kJ/mol]

    Exchange                       30.20198348 [mEh]      18.95203076 [kcal/mol]      79.29529671 [kJ/mol]
      Exch10                       29.93495715 [mEh]      18.78446921 [kcal/mol]      78.59421918 [kJ/mol]
      Exch10(S^2)                  29.34446201 [mEh]      18.41392791 [kcal/mol]      77.04387439 [kJ/mol]
      Exch11(S^2)                   1.08008623 [mEh]       0.67776434 [kcal/mol]       2.83576600 [kJ/mol]
      Exch12(S^2)                  -0.81305990 [mEh]      -0.51020279 [kcal/mol]      -2.13468847 [kJ/mol]

    Induction                      -7.36768266 [mEh]      -4.62329067 [kcal/mol]     -19.34384815 [kJ/mol]
      Ind20,r                     -15.20937325 [mEh]      -9.54402581 [kcal/mol]     -39.93220398 [kJ/mol]
      Ind22                         0.27931587 [mEh]       0.17527336 [kcal/mol]       0.73334373 [kJ/mol]
      Exch-Ind20,r                 11.25803881 [mEh]       7.06452601 [kcal/mol]      29.55797682 [kJ/mol]
      Exch-Ind22                   -0.20675072 [mEh]      -0.12973804 [kcal/mol]      -0.54282395 [kJ/mol]
      delta HF,r (2)               -3.48891336 [mEh]      -2.18932619 [kcal/mol]      -9.16014077 [kJ/mol]

    Dispersion                     -8.15380729 [mEh]      -5.11659132 [kcal/mol]     -21.40781809 [kJ/mol]
      Disp20                      -10.10385797 [mEh]      -6.34026660 [kcal/mol]     -26.52767544 [kJ/mol]
      Disp21                        0.62315241 [mEh]       0.39103404 [kcal/mol]       1.63608642 [kJ/mol]
      Disp22 (SDQ)                  0.70772081 [mEh]       0.44410152 [kcal/mol]       1.85812074 [kJ/mol]
      Disp22 (T)                   -1.38478132 [mEh]      -0.86896339 [kcal/mol]      -3.63574284 [kJ/mol]
      Est. Disp22 (T)              -1.58975738 [mEh]      -0.99758782 [kcal/mol]      -4.17390744 [kJ/mol]
      Exch-Disp20                   2.20893484 [mEh]       1.38612754 [kcal/mol]       5.79955763 [kJ/mol]

  Total HF                          6.63333147 [mEh]       4.16247834 [kcal/mol]      17.41580938 [kJ/mol]
  Total SAPT0                      -1.26159165 [mEh]      -0.79166071 [kcal/mol]      -3.31230843 [kJ/mol]
  Total SAPT2                       0.33361811 [mEh]       0.20934852 [kcal/mol]       0.87591422 [kJ/mol]
  Total SAPT2+                      0.07473394 [mEh]       0.04689626 [kcal/mol]       0.19621393 [kJ/mol]

  Special recipe for scaled SAPT0 (see Manual):
    Electrostatics sSAPT0         -15.86137788 [mEh]      -9.95316488 [kcal/mol]     -41.64404188 [kJ/mol]
    Exchange sSAPT0                29.93495715 [mEh]      18.78446921 [kcal/mol]      78.59421918 [kJ/mol]
    Induction sSAPT0               -6.74684735 [mEh]      -4.23371063 [kcal/mol]     -17.71384527 [kJ/mol]
    Dispersion sSAPT0              -7.75887132 [mEh]      -4.86876526 [kcal/mol]     -20.37091386 [kJ/mol]
  Total sSAPT0                     -0.43213940 [mEh]      -0.27117156 [kcal/mol]      -1.13458183 [kJ/mol]
  --------------------------------------------------------------------------------------------------------

*** Psi4 exiting successfully. Buy a developer a beer!
