                               Psi4 1.4a2.dev224

  ==> Input File <==

--------------------------------------------------------------------------
#Generated by lconvert.py for sapt job

memory 50 GB

molecule  {
0 1
  C       1.291260   -0.666910   -0.014690
  H       1.586310   -1.228550    0.860100
  H       1.000950   -1.228630   -0.891020
  C       1.291170    0.666930   -0.014690
  H       1.000800    1.228600   -0.891030
  H       1.586160    1.228620    0.860080
--
0 1
  O      -1.986350   -0.000030   -0.090080
  H      -1.046280    0.000060    0.113300
  H      -2.404410   -0.000040    0.772720
units angstrom
no_reorient
symmetry c1
}

set {
scf_type DF
basis aug-cc-pvtz
freeze_core True
guess SAD
}
energy('sapt2+')
--------------------------------------------------------------------------

  //              Dimer HF             //
    Molecular point group: c1
  Charge       = 0
  Multiplicity = 1
  Basis Set: AUG-CC-PVTZ
    Blend: AUG-CC-PVTZ
  Basis Set: (AUG-CC-PVTZ AUX)
    Blend: AUG-CC-PVTZ-JKFIT
  @DF-RHF Final Energy:  -154.12599986972054
    Total Energy =                       -154.1259998697205447
  //            Monomer A HF           //
    Molecular point group: c1
  Multiplicity = 1
  Basis Set: AUG-CC-PVTZ
    Blend: AUG-CC-PVTZ
  Basis Set: (AUG-CC-PVTZ AUX)
    Blend: AUG-CC-PVTZ-JKFIT
  @DF-RHF Final Energy:   -78.06473230897095
    Total Energy =                        -78.0647323089709460
  //            Monomer B HF           //
    Molecular point group: c1

    Geometry (in Angstrom), charge = 0, multiplicity = 1:

       Center              X                  Y                   Z               Mass
    ------------   -----------------  -----------------  -----------------  -----------------
      Gh(C)           1.270525000949    -0.666906104025     0.006221032004    12.000000000000
      Gh(H)           1.565575000949    -1.228546104025     0.881011032004     1.007825032230
      Gh(H)           0.980215000949    -1.228626104025    -0.870108967996     1.007825032230
      Gh(C)           1.270435000949     0.666933895975     0.006221032004    12.000000000000
      Gh(H)           0.980065000949     1.228603895975    -0.870118967996     1.007825032230
      Gh(H)           1.565425000949     1.228623895975     0.880991032004     1.007825032230
         O           -2.007084999051    -0.000026104025    -0.069168967996    15.994914619570
         H           -1.067014999051     0.000063895975     0.134211032004     1.007825032230
         H           -2.425144999051    -0.000036104025     0.793631032004     1.007825032230

  Charge       = 0
  Multiplicity = 1
  Basis Set: AUG-CC-PVTZ
    Blend: AUG-CC-PVTZ
  Basis Set: (AUG-CC-PVTZ AUX)
    Blend: AUG-CC-PVTZ-JKFIT

    Orbital Energies [Eh]
    ---------------------

    Doubly Occupied:

       1A    -20.568067     2A     -1.352615     3A     -0.714443
       4A     -0.586010     5A     -0.510356

  @DF-RHF Final Energy:   -76.06037425234223

   => Energetics <=

    Nuclear Repulsion Energy =              9.1675460637464283
    One-Electron Energy =                -122.9928554751617753
    Two-Electron Energy =                  37.7649351590731186
    Total Energy =                        -76.0603742523422284

  Dipole Moment: [D]
     X:     0.8787      Y:     0.0001      Z:     1.7964     Total:     1.9998

    SAPT Results
  --------------------------------------------------------------------------------------------------------
    Electrostatics                 -6.51183870 [mEh]      -4.08624047 [kcal/mol]     -17.09683014 [kJ/mol]
      Elst10,r                     -7.31967500 [mEh]      -4.59316541 [kcal/mol]     -19.21780406 [kJ/mol]
      Elst12,r                      0.80783630 [mEh]       0.50692493 [kcal/mol]       2.12097392 [kJ/mol]

    Exchange                        9.09672522 [mEh]       5.70828125 [kcal/mol]      23.88344877 [kJ/mol]
      Exch10                        9.02649929 [mEh]       5.66421382 [kcal/mol]      23.69907061 [kJ/mol]
      Exch10(S^2)                   8.96280349 [mEh]       5.62424410 [kcal/mol]      23.53183732 [kJ/mol]
      Exch11(S^2)                   0.37713167 [mEh]       0.23665370 [kcal/mol]       0.99015906 [kJ/mol]
      Exch12(S^2)                  -0.30690574 [mEh]      -0.19258626 [kcal/mol]      -0.80578090 [kJ/mol]

    Induction                      -2.54054699 [mEh]      -1.59421730 [kcal/mol]      -6.67020520 [kJ/mol]
      Ind20,r                      -4.66310745 [mEh]      -2.92614410 [kcal/mol]     -12.24298693 [kJ/mol]
      Ind22                         0.18951056 [mEh]       0.11891967 [kcal/mol]       0.49755991 [kJ/mol]
      Exch-Ind20,r                  3.19693829 [mEh]       2.00610906 [kcal/mol]       8.39356032 [kJ/mol]
      Exch-Ind22                   -0.12992486 [mEh]      -0.08152908 [kcal/mol]      -0.34111767 [kJ/mol]
      delta HF,r (2)               -1.13396353 [mEh]      -0.71157286 [kcal/mol]      -2.97722083 [kJ/mol]

    Dispersion                     -3.99023606 [mEh]      -2.50391093 [kcal/mol]     -10.47636333 [kJ/mol]
      Disp20                       -4.54827428 [mEh]      -2.85408520 [kcal/mol]     -11.94149248 [kJ/mol]
      Disp21                        0.19975388 [mEh]       0.12534745 [kcal/mol]       0.52445373 [kJ/mol]
      Disp22 (SDQ)                  0.34931811 [mEh]       0.21920042 [kcal/mol]       0.91713458 [kJ/mol]
      Disp22 (T)                   -0.65846467 [mEh]      -0.41319282 [kcal/mol]      -1.72879875 [kJ/mol]
      Est. Disp22 (T)              -0.76234158 [mEh]      -0.47837656 [kcal/mol]      -2.00152753 [kJ/mol]
      Exch-Disp20                   0.77130781 [mEh]       0.48400296 [kcal/mol]       2.02506837 [kJ/mol]

  Total HF                         -0.89330841 [mEh]      -0.56055949 [kcal/mol]      -2.34538090 [kJ/mol]
  Total SAPT0                      -4.67027488 [mEh]      -2.93064173 [kcal/mol]     -12.26180501 [kJ/mol]
  Total SAPT2                      -3.73262694 [mEh]      -2.34225877 [kcal/mol]      -9.80001069 [kJ/mol]
  Total SAPT2+                     -3.94589653 [mEh]      -2.47608745 [kcal/mol]     -10.35994991 [kJ/mol]

  Special recipe for scaled SAPT0 (see Manual):
    Electrostatics sSAPT0          -7.31967500 [mEh]      -4.59316541 [kcal/mol]     -19.21780406 [kJ/mol]
    Exchange sSAPT0                 9.02649929 [mEh]       5.66421382 [kcal/mol]      23.69907061 [kJ/mol]
    Induction sSAPT0               -2.53148829 [mEh]      -1.58853288 [kcal/mol]      -6.64642159 [kJ/mol]
    Dispersion sSAPT0              -3.76040501 [mEh]      -2.35968977 [kcal/mol]      -9.87294200 [kJ/mol]
  Total sSAPT0                     -4.58506902 [mEh]      -2.87717425 [kcal/mol]     -12.03809704 [kJ/mol]
  --------------------------------------------------------------------------------------------------------

*** Psi4 exiting successfully. Buy a developer a beer!
