                               Psi4 1.4a2.dev224

  ==> Input File <==

--------------------------------------------------------------------------
#Generated by lconvert.py for sapt job

memory 50 GB

molecule  {
0 1
  C       1.291260   -0.666910   -0.014690
  H       1.586310   -1.228550    0.860100
  H       1.000950   -1.228630   -0.891020
  C       1.291170    0.666930   -0.014690
  H       1.000800    1.228600   -0.891030
  H       1.586160    1.228620    0.860080
--
0 1
  O      -1.311360   -0.000040   -0.127060
  H      -0.371290    0.000050    0.076310
  H      -1.729420   -0.000060    0.735740
units angstrom
no_reorient
symmetry c1
}

set {
scf_type DF
basis aug-cc-pvtz
freeze_core True
guess SAD
}
energy('sapt2+')
--------------------------------------------------------------------------

  //              Dimer HF             //
    Molecular point group: c1
  Charge       = 0
  Multiplicity = 1
  Basis Set: AUG-CC-PVTZ
    Blend: AUG-CC-PVTZ
  Basis Set: (AUG-CC-PVTZ AUX)
    Blend: AUG-CC-PVTZ-JKFIT
  @DF-RHF Final Energy:  -154.10272733127346
    Total Energy =                       -154.1027273312734565
  //            Monomer A HF           //
    Molecular point group: c1
  Multiplicity = 1
  Basis Set: AUG-CC-PVTZ
    Blend: AUG-CC-PVTZ
  Basis Set: (AUG-CC-PVTZ AUX)
    Blend: AUG-CC-PVTZ-JKFIT
  @DF-RHF Final Energy:   -78.06479714607576
    Total Energy =                        -78.0647971460757617
  //            Monomer B HF           //
    Molecular point group: c1

    Geometry (in Angstrom), charge = 0, multiplicity = 1:

       Center              X                  Y                   Z               Mass
    ------------   -----------------  -----------------  -----------------  -----------------
      Gh(C)           1.006483761406    -0.666901973352     0.020687013409    12.000000000000
      Gh(H)           1.301533761406    -1.228541973352     0.895477013409     1.007825032230
      Gh(H)           0.716173761406    -1.228621973352    -0.855642986591     1.007825032230
      Gh(C)           1.006393761406     0.666938026648     0.020687013409    12.000000000000
      Gh(H)           0.716023761406     1.228608026648    -0.855652986591     1.007825032230
      Gh(H)           1.301383761406     1.228628026648     0.895457013409     1.007825032230
         O           -1.596136238594    -0.000031973352    -0.091682986591    15.994914619570
         H           -0.656066238594     0.000058026648     0.111687013409     1.007825032230
         H           -2.014196238594    -0.000051973352     0.771117013409     1.007825032230

  Charge       = 0
  Multiplicity = 1
  Basis Set: AUG-CC-PVTZ
    Blend: AUG-CC-PVTZ
  Basis Set: (AUG-CC-PVTZ AUX)
    Blend: AUG-CC-PVTZ-JKFIT

    Orbital Energies [Eh]
    ---------------------

    Doubly Occupied:

       1A    -20.567993     2A     -1.352567     3A     -0.714402
       4A     -0.585974     5A     -0.510332

  @DF-RHF Final Energy:   -76.06042640653834

   => Energetics <=

    Nuclear Repulsion Energy =              9.1675547251700991
    One-Electron Energy =                -122.9934212376519014
    Two-Electron Energy =                  37.7654401059434619
    Total Energy =                        -76.0604264065383404

  Dipole Moment: [D]
     X:     0.8786      Y:     0.0001      Z:     1.7955     Total:     1.9990

    SAPT Results
  --------------------------------------------------------------------------------------------------------
    Electrostatics                -26.78390370 [mEh]     -16.80715332 [kcal/mol]     -70.32112948 [kJ/mol]
      Elst10,r                    -28.38786796 [mEh]     -17.81365609 [kcal/mol]     -74.53233707 [kJ/mol]
      Elst12,r                      1.60396426 [mEh]       1.00650277 [kcal/mol]       4.21120759 [kJ/mol]

    Exchange                       66.83384747 [mEh]      41.93887246 [kcal/mol]     175.47224236 [kJ/mol]
      Exch10                       66.36780776 [mEh]      41.64642812 [kcal/mol]     174.24865526 [kJ/mol]
      Exch10(S^2)                  63.82643593 [mEh]      40.05169322 [kcal/mol]     167.57628444 [kJ/mol]
      Exch11(S^2)                   1.95575737 [mEh]       1.22725628 [kcal/mol]       5.13484027 [kJ/mol]
      Exch12(S^2)                  -1.48971766 [mEh]      -0.93481194 [kcal/mol]      -3.91125317 [kJ/mol]

    Induction                     -15.45703215 [mEh]      -9.69943411 [kcal/mol]     -40.58243232 [kJ/mol]
      Ind20,r                     -35.02503471 [mEh]     -21.97854110 [kcal/mol]     -91.95821596 [kJ/mol]
      Ind22                         0.10363388 [mEh]       0.06503124 [kcal/mol]       0.27209070 [kJ/mol]
      Exch-Ind20,r                 26.00589162 [mEh]      16.31894336 [kcal/mol]      68.27845903 [kJ/mol]
      Exch-Ind22                   -0.07694757 [mEh]      -0.04828533 [kcal/mol]      -0.20202582 [kJ/mol]
      delta HF,r (2)               -6.46457536 [mEh]      -4.05658228 [kcal/mol]     -16.97274028 [kJ/mol]

    Dispersion                    -13.41803337 [mEh]      -8.41994306 [kcal/mol]     -35.22904175 [kJ/mol]
      Disp20                      -17.58203239 [mEh]     -11.03289189 [kcal/mol]     -46.16161967 [kJ/mol]
      Disp21                        1.40470981 [mEh]       0.88146871 [kcal/mol]       3.68806509 [kJ/mol]
      Disp22 (SDQ)                  1.10672545 [mEh]       0.69448070 [kcal/mol]       2.90570727 [kJ/mol]
      Disp22 (T)                   -2.32197796 [mEh]      -1.45706317 [kcal/mol]      -6.09635229 [kJ/mol]
      Est. Disp22 (T)              -2.63031899 [mEh]      -1.65055008 [kcal/mol]      -6.90590155 [kJ/mol]
      Exch-Disp20                   4.28288275 [mEh]       2.68754950 [kcal/mol]      11.24470711 [kJ/mol]

  Total HF                         22.49622134 [mEh]      14.11659202 [kcal/mol]      59.06382099 [kJ/mol]
  Total SAPT0                       9.19707170 [mEh]       5.77124963 [kcal/mol]      24.14690843 [kJ/mol]
  Total SAPT2                      11.29376198 [mEh]       7.08694264 [kcal/mol]      29.65176800 [kJ/mol]
  Total SAPT2+                     11.17487825 [mEh]       7.01234197 [kcal/mol]      29.33963881 [kJ/mol]

  Special recipe for scaled SAPT0 (see Manual):
    Electrostatics sSAPT0         -28.38786796 [mEh]     -17.81365609 [kcal/mol]     -74.53233707 [kJ/mol]
    Exchange sSAPT0                66.36780776 [mEh]      41.64642812 [kcal/mol]     174.24865526 [kJ/mol]
    Induction sSAPT0              -12.25196544 [mEh]      -7.68822438 [kcal/mol]     -32.16753083 [kJ/mol]
    Dispersion sSAPT0             -12.76691565 [mEh]      -8.01136052 [kcal/mol]     -33.51953243 [kJ/mol]
  Total sSAPT0                     12.96105870 [mEh]       8.13318713 [kcal/mol]      34.02925493 [kJ/mol]
  --------------------------------------------------------------------------------------------------------

*** Psi4 exiting successfully. Buy a developer a beer!
