                               Psi4 1.4a2.dev224

  ==> Input File <==

--------------------------------------------------------------------------
#Generated by lconvert.py for sapt job

memory 50 GB

molecule  {
0 1
  C       1.291260   -0.666910   -0.014690
  H       1.586310   -1.228550    0.860100
  H       1.000950   -1.228630   -0.891020
  C       1.291170    0.666930   -0.014690
  H       1.000800    1.228600   -0.891030
  H       1.586160    1.228620    0.860080
--
0 1
  O      -1.853050   -0.000030   -0.097380
  H      -0.912980    0.000060    0.106000
  H      -2.271110   -0.000050    0.765420
units angstrom
no_reorient
symmetry c1
}

set {
scf_type DF
basis aug-cc-pvtz
freeze_core True
guess SAD
}
energy('sapt2+')
--------------------------------------------------------------------------

  //              Dimer HF             //
    Molecular point group: c1
  Charge       = 0
  Multiplicity = 1
  Basis Set: AUG-CC-PVTZ
    Blend: AUG-CC-PVTZ
  Basis Set: (AUG-CC-PVTZ AUX)
    Blend: AUG-CC-PVTZ-JKFIT
  @DF-RHF Final Energy:  -154.12465307219176
    Total Energy =                       -154.1246530721917622
  //            Monomer A HF           //
    Molecular point group: c1
  Multiplicity = 1
  Basis Set: AUG-CC-PVTZ
    Blend: AUG-CC-PVTZ
  Basis Set: (AUG-CC-PVTZ AUX)
    Blend: AUG-CC-PVTZ-JKFIT
  @DF-RHF Final Energy:   -78.06473752932682
    Total Energy =                        -78.0647375293268055
  //            Monomer B HF           //
    Molecular point group: c1

    Geometry (in Angstrom), charge = 0, multiplicity = 1:

       Center              X                  Y                   Z               Mass
    ------------   -----------------  -----------------  -----------------  -----------------
      Gh(C)           1.218380973287    -0.666905885132     0.009076631418    12.000000000000
      Gh(H)           1.513430973287    -1.228545885132     0.883866631418     1.007825032230
      Gh(H)           0.928070973287    -1.228625885132    -0.867253368582     1.007825032230
      Gh(C)           1.218290973287     0.666934114868     0.009076631418    12.000000000000
      Gh(H)           0.927920973287     1.228604114868    -0.867263368582     1.007825032230
      Gh(H)           1.513280973287     1.228624114868     0.883846631418     1.007825032230
         O           -1.925929026713    -0.000025885132    -0.073613368582    15.994914619570
         H           -0.985859026713     0.000064114868     0.129766631418     1.007825032230
         H           -2.343989026713    -0.000045885132     0.789186631418     1.007825032230

  Charge       = 0
  Multiplicity = 1
  Basis Set: AUG-CC-PVTZ
    Blend: AUG-CC-PVTZ
  Basis Set: (AUG-CC-PVTZ AUX)
    Blend: AUG-CC-PVTZ-JKFIT

    Orbital Energies [Eh]
    ---------------------

    Doubly Occupied:

       1A    -20.568054     2A     -1.352606     3A     -0.714435
       4A     -0.586003     5A     -0.510353

  @DF-RHF Final Energy:   -76.06038229134825

   => Energetics <=

    Nuclear Repulsion Energy =              9.1675460628644032
    One-Electron Energy =                -122.9929520937760259
    Two-Electron Energy =                  37.7650237395633823
    Total Energy =                        -76.0603822913482475

  Dipole Moment: [D]
     X:     0.8788      Y:     0.0001      Z:     1.7963     Total:     1.9997

    SAPT Results
  --------------------------------------------------------------------------------------------------------
    Electrostatics                 -8.39781883 [mEh]      -5.26971087 [kcal/mol]     -22.04847029 [kJ/mol]
      Elst10,r                     -9.33787498 [mEh]      -5.85960502 [kcal/mol]     -24.51658739 [kJ/mol]
      Elst12,r                      0.94005616 [mEh]       0.58989414 [kcal/mol]       2.46811710 [kJ/mol]

    Exchange                       13.58525471 [mEh]       8.52487604 [kcal/mol]      35.66808134 [kJ/mol]
      Exch10                       13.46978988 [mEh]       8.45242076 [kcal/mol]      35.36492847 [kJ/mol]
      Exch10(S^2)                  13.33540385 [mEh]       8.36809226 [kcal/mol]      35.01209800 [kJ/mol]
      Exch11(S^2)                   0.54322593 [mEh]       0.34087942 [kcal/mol]       1.42623948 [kJ/mol]
      Exch12(S^2)                  -0.42776110 [mEh]      -0.26842414 [kcal/mol]      -1.12308661 [kJ/mol]

    Induction                      -3.59827437 [mEh]      -2.25795126 [kcal/mol]      -9.44726806 [kJ/mol]
      Ind20,r                      -6.85655090 [mEh]      -4.30255065 [kcal/mol]     -18.00187191 [kJ/mol]
      Ind22                         0.22993285 [mEh]       0.14428504 [kcal/mol]       0.60368862 [kJ/mol]
      Exch-Ind20,r                  4.86184363 [mEh]       3.05085294 [kcal/mol]      12.76476870 [kJ/mol]
      Exch-Ind22                   -0.16304080 [mEh]      -0.10230965 [kcal/mol]      -0.42806357 [kJ/mol]
      delta HF,r (2)               -1.67045915 [mEh]      -1.04822894 [kcal/mol]      -4.38578990 [kJ/mol]

    Dispersion                     -5.04718964 [mEh]      -3.16715932 [kcal/mol]     -13.25139458 [kJ/mol]
      Disp20                       -5.90727421 [mEh]      -3.70687053 [kcal/mol]     -15.50954630 [kJ/mol]
      Disp21                        0.28718992 [mEh]       0.18021439 [kcal/mol]       0.75401702 [kJ/mol]
      Disp22 (SDQ)                  0.44305087 [mEh]       0.27801862 [kcal/mol]       1.16322990 [kJ/mol]
      Disp22 (T)                   -0.83722749 [mEh]      -0.52536818 [kcal/mol]      -2.19814047 [kJ/mol]
      Est. Disp22 (T)              -0.97208005 [mEh]      -0.60998944 [kcal/mol]      -2.55219582 [kJ/mol]
      Exch-Disp20                   1.10192383 [mEh]       0.69146764 [kcal/mol]       2.89310062 [kJ/mol]

  Total HF                          0.46674848 [mEh]       0.29288910 [kcal/mol]       1.22544797 [kJ/mol]
  Total SAPT0                      -4.33860189 [mEh]      -2.72251379 [kcal/mol]     -11.39099771 [kJ/mol]
  Total SAPT2                      -3.21618886 [mEh]      -2.01818898 [kcal/mol]      -8.44410269 [kJ/mol]
  Total SAPT2+                     -3.45802813 [mEh]      -2.16994541 [kcal/mol]      -9.07905159 [kJ/mol]

  Special recipe for scaled SAPT0 (see Manual):
    Electrostatics sSAPT0          -9.33787498 [mEh]      -5.85960502 [kcal/mol]     -24.51658739 [kJ/mol]
    Exchange sSAPT0                13.46978988 [mEh]       8.45242076 [kcal/mol]      35.36492847 [kJ/mol]
    Induction sSAPT0               -3.51669618 [mEh]      -2.20676017 [kcal/mol]      -9.23308456 [kJ/mol]
    Dispersion sSAPT0              -4.77170000 [mEh]      -2.99428695 [kcal/mol]     -12.52809662 [kJ/mol]
  Total sSAPT0                     -4.15648128 [mEh]      -2.60823138 [kcal/mol]     -10.91284009 [kJ/mol]
  --------------------------------------------------------------------------------------------------------

*** Psi4 exiting successfully. Buy a developer a beer!
