                               Psi4 1.4a2.dev224

  ==> Input File <==

--------------------------------------------------------------------------
#Generated by lconvert.py for sapt job

memory 50 GB

molecule  {
0 1
  C       1.291260   -0.666910   -0.014690
  H       1.586310   -1.228550    0.860100
  H       1.000950   -1.228630   -0.891020
  C       1.291170    0.666930   -0.014690
  H       1.000800    1.228600   -0.891030
  H       1.586160    1.228620    0.860080
--
0 1
  O      -1.311360   -0.000040   -0.127060
  H      -0.371290    0.000050    0.076310
  H      -1.729420   -0.000060    0.735740
units angstrom
no_reorient
symmetry c1
}

set {
scf_type DF
basis aug-cc-pvtz
freeze_core True
guess SAD
}
energy('sapt2+')
--------------------------------------------------------------------------

  //              Dimer HF             //
    Molecular point group: c1
  Charge       = 0
  Multiplicity = 1
  Basis Set: AUG-CC-PVTZ
    Blend: AUG-CC-PVTZ
  Basis Set: (AUG-CC-PVTZ AUX)
    Blend: AUG-CC-PVTZ-JKFIT
  @DF-RHF Final Energy:  -154.10272733127346
    Total Energy =                       -154.1027273312734565
  //            Monomer A HF           //
    Molecular point group: c1
  Basis Set: AUG-CC-PVTZ
    Blend: AUG-CC-PVTZ
  Basis Set: (AUG-CC-PVTZ AUX)
    Blend: AUG-CC-PVTZ-JKFIT
  @DF-RHF Final Energy:   -78.06479714607576
    Total Energy =                        -78.0647971460757617
  //            Monomer B HF           //
  Basis Set: AUG-CC-PVTZ
    Blend: AUG-CC-PVTZ
  Basis Set: (AUG-CC-PVTZ AUX)
    Blend: AUG-CC-PVTZ-JKFIT
  @DF-RHF Final Energy:   -76.06042640653834
    Total Energy =                        -76.0604264065383404
*** Psi4 exiting successfully. Buy a developer a beer!
                               Psi4 1.4a2.dev224
  //              Dimer HF             //
  Basis Set: AUG-CC-PVTZ
    Blend: AUG-CC-PVTZ
  Basis Set: (AUG-CC-PVTZ AUX)
    Blend: AUG-CC-PVTZ-JKFIT
  @DF-RHF Final Energy:  -154.11852185471804
    Total Energy =                       -154.1185218547180398
  @DF-RHF Final Energy:   -78.06475428042496
    Total Energy =                        -78.0647542804249639
  @DF-RHF Final Energy:   -76.06040090576391
    Total Energy =                        -76.0604009057639132
*** Psi4 exiting successfully. Buy a developer a beer!
                               Psi4 1.4a2.dev224
  @DF-RHF Final Energy:  -154.12465307219176
    Total Energy =                       -154.1246530721917622
  @DF-RHF Final Energy:   -78.06473752932682
    Total Energy =                        -78.0647375293268055
  @DF-RHF Final Energy:   -76.06038229134825
    Total Energy =                        -76.0603822913482475
                               Psi4 1.4a2.dev224
  @DF-RHF Final Energy:  -154.12599986972054
    Total Energy =                       -154.1259998697205447
  @DF-RHF Final Energy:   -78.06473230897095
    Total Energy =                        -78.0647323089709460
  @DF-RHF Final Energy:   -76.06037425234223
    Total Energy =                        -76.0603742523422284
                               Psi4 1.4a2.dev224
  @DF-RHF Final Energy:  -154.12672851310856
    Total Energy =                       -154.1267285131085600
  @DF-RHF Final Energy:   -78.06472574726735
    Total Energy =                        -78.0647257472673459
  @DF-RHF Final Energy:   -76.06036686445040
    Total Energy =                        -76.0603668644504012
                               Psi4 1.4a2.dev224
  @DF-RHF Final Energy:  -154.12706813144445
    Total Energy =                       -154.1270681314444460
  @DF-RHF Final Energy:   -78.06471792717070
    Total Energy =                        -78.0647179271707046
  @DF-RHF Final Energy:   -76.06035955577741
    Total Energy =                        -76.0603595557774099
                               Psi4 1.4a2.dev224
  @DF-RHF Final Energy:  -154.12716925307762
    Total Energy =                       -154.1271692530776249
  @DF-RHF Final Energy:   -78.06470948464150
    Total Energy =                        -78.0647094846414973
  @DF-RHF Final Energy:   -76.06035263357977
    Total Energy =                        -76.0603526335797824
                               Psi4 1.4a2.dev224
  @DF-RHF Final Energy:  -154.12667236073813
    Total Energy =                       -154.1266723607381266
  @DF-RHF Final Energy:   -78.06468843111192
    Total Energy =                        -78.0646884311119180
  @DF-RHF Final Energy:   -76.06033194048069
    Total Energy =                        -76.0603319404806797
                               Psi4 1.4a2.dev224
  @DF-RHF Final Energy:  -154.12582648882659
    Total Energy =                       -154.1258264888265899
  @DF-RHF Final Energy:   -78.06466640387323
    Total Energy =                        -78.0646664038732325
  //            Monomer B HF           //
  Basis Set: AUG-CC-PVTZ
    Blend: AUG-CC-PVTZ
  Basis Set: (AUG-CC-PVTZ AUX)
    Blend: AUG-CC-PVTZ-JKFIT
  @DF-RHF Final Energy:   -76.06032100504764
    Total Energy =                        -76.0603210050476406
*** Psi4 exiting successfully. Buy a developer a beer!
                               Psi4 1.4a2.dev224
  //              Dimer HF             //
  Basis Set: AUG-CC-PVTZ
    Blend: AUG-CC-PVTZ
  Basis Set: (AUG-CC-PVTZ AUX)
    Blend: AUG-CC-PVTZ-JKFIT
  @DF-RHF Final Energy:  -154.12541166242326
    Total Energy =                       -154.1254116624232609
  //            Monomer A HF           //
  Multiplicity = 1
  Basis Set: AUG-CC-PVTZ
    Blend: AUG-CC-PVTZ
  Basis Set: (AUG-CC-PVTZ AUX)
    Blend: AUG-CC-PVTZ-JKFIT
  @DF-RHF Final Energy:   -78.06466235186777
    Total Energy =                        -78.0646623518677814
  //            Monomer B HF           //
    Molecular point group: c1

    Geometry (in Angstrom), charge = 0, multiplicity = 1:

       Center              X                  Y                   Z               Mass
    ------------   -----------------  -----------------  -----------------  -----------------
      Gh(C)           2.279697307958    -0.666929574706    -0.049079583240    12.000000000000
      Gh(H)           2.574747307958    -1.228569574706     0.825710416760     1.007825032230
      Gh(H)           1.989387307958    -1.228649574706    -0.925409583240     1.007825032230
      Gh(C)           2.279607307958     0.666910425294    -0.049079583240    12.000000000000
      Gh(H)           1.989237307958     1.228580425294    -0.925419583240     1.007825032230
      Gh(H)           2.574597307958     1.228600425294     0.825690416760     1.007825032230
         O           -3.577742692042     0.000010425294     0.016900416760    15.994914619570
         H           -2.637662692042     0.000100425294     0.220270416760     1.007825032230
         H           -3.995792692042     0.000000425294     0.879700416760     1.007825032230

  Charge       = 0
  Multiplicity = 1
  Basis Set: AUG-CC-PVTZ
    Blend: AUG-CC-PVTZ
  Basis Set: (AUG-CC-PVTZ AUX)
    Blend: AUG-CC-PVTZ-JKFIT

    Orbital Energies [Eh]
    ---------------------

    Doubly Occupied:

       1A    -20.568127     2A     -1.352670     3A     -0.714494
       4A     -0.586069     5A     -0.510368

  @DF-RHF Final Energy:   -76.06031701600823

   => Energetics <=

    Nuclear Repulsion Energy =              9.1675300813138776
    One-Electron Energy =                -122.9922362381997374
    Two-Electron Energy =                  37.7643891408776469
    Total Energy =                        -76.0603170160082129

  Dipole Moment: [D]
     X:     0.8782      Y:     0.0001      Z:     1.7966     Total:     1.9997

    SAPT Results
  --------------------------------------------------------------------------------------------------------
    Electrostatics                 -0.35436131 [mEh]      -0.22236508 [kcal/mol]      -0.93037548 [kJ/mol]
      Elst10,r                     -0.41855226 [mEh]      -0.26264551 [kcal/mol]      -1.09890882 [kJ/mol]
      Elst12,r                      0.06419096 [mEh]       0.04028043 [kcal/mol]       0.16853333 [kJ/mol]

    Exchange                        0.00283479 [mEh]       0.00177886 [kcal/mol]       0.00744274 [kJ/mol]
      Exch10                        0.00293233 [mEh]       0.00184006 [kcal/mol]       0.00769882 [kJ/mol]
      Exch10(S^2)                   0.00293231 [mEh]       0.00184005 [kcal/mol]       0.00769878 [kJ/mol]
      Exch11(S^2)                   0.00012293 [mEh]       0.00007714 [kcal/mol]       0.00032276 [kJ/mol]
      Exch12(S^2)                  -0.00022047 [mEh]      -0.00013835 [kcal/mol]      -0.00057884 [kJ/mol]

    Induction                      -0.01510068 [mEh]      -0.00947582 [kcal/mol]      -0.03964682 [kJ/mol]
      Ind20,r                      -0.01713649 [mEh]      -0.01075331 [kcal/mol]      -0.04499185 [kJ/mol]
      Ind22                         0.00165788 [mEh]       0.00104034 [kcal/mol]       0.00435277 [kJ/mol]
      Exch-Ind20,r                  0.00086774 [mEh]       0.00054451 [kcal/mol]       0.00227824 [kJ/mol]
      Exch-Ind22                   -0.00008395 [mEh]      -0.00005268 [kcal/mol]      -0.00022041 [kJ/mol]
      delta HF,r (2)               -0.00040586 [mEh]      -0.00025468 [kcal/mol]      -0.00106557 [kJ/mol]

    Dispersion                     -0.08540872 [mEh]      -0.05359478 [kcal/mol]      -0.22424055 [kJ/mol]
      Disp20                       -0.08300135 [mEh]      -0.05208413 [kcal/mol]      -0.21792001 [kJ/mol]
      Disp21                        0.00649125 [mEh]       0.00407332 [kcal/mol]       0.01704277 [kJ/mol]
      Disp22 (SDQ)                  0.00616200 [mEh]       0.00386672 [kcal/mol]       0.01617834 [kJ/mol]
      Disp22 (T)                   -0.01469771 [mEh]      -0.00922295 [kcal/mol]      -0.03858882 [kJ/mol]
      Est. Disp22 (T)              -0.01547047 [mEh]      -0.00970786 [kcal/mol]      -0.04061770 [kJ/mol]
      Exch-Disp20                   0.00040985 [mEh]       0.00025718 [kcal/mol]       0.00107605 [kJ/mol]

  Total HF                         -0.43229455 [mEh]      -0.27126892 [kcal/mol]      -1.13498918 [kJ/mol]
  Total SAPT0                      -0.51488605 [mEh]      -0.32309587 [kcal/mol]      -1.35183313 [kJ/mol]
  Total SAPT2                      -0.44921869 [mEh]      -0.28188899 [kcal/mol]      -1.17942352 [kJ/mol]
  Total SAPT2+                     -0.45203591 [mEh]      -0.28365681 [kcal/mol]      -1.18682011 [kJ/mol]

  Special recipe for scaled SAPT0 (see Manual):
    Electrostatics sSAPT0          -0.41855226 [mEh]      -0.26264551 [kcal/mol]      -1.09890882 [kJ/mol]
    Exchange sSAPT0                 0.00293233 [mEh]       0.00184006 [kcal/mol]       0.00769882 [kJ/mol]
    Induction sSAPT0               -0.01667461 [mEh]      -0.01046347 [kcal/mol]      -0.04377918 [kJ/mol]
    Dispersion sSAPT0              -0.08259150 [mEh]      -0.05182695 [kcal/mol]      -0.21684396 [kJ/mol]
  Total sSAPT0                     -0.51488605 [mEh]      -0.32309587 [kcal/mol]      -1.35183313 [kJ/mol]
  --------------------------------------------------------------------------------------------------------

*** Psi4 exiting successfully. Buy a developer a beer!
