                               Psi4 1.4a2.dev224

  ==> Input File <==

--------------------------------------------------------------------------
#Generated by lconvert.py for sapt job

memory 50 GB

molecule  {
0 1
  O       1.584940    0.104690    0.000010
  H       1.949370   -0.781150    0.000050
  H       0.626500   -0.040430   -0.000320
--
0 1
  N      -1.411180   -0.025670   -0.000020
  H      -1.882490   -0.380020    0.821920
  H      -1.602370    0.967780   -0.025900
  H      -1.892270   -0.424070   -0.795680
units angstrom
no_reorient
symmetry c1
}

set {
scf_type DF
basis aug-cc-pvtz
freeze_core True
guess SAD
}
energy('sapt2+')
--------------------------------------------------------------------------

  //              Dimer HF             //
    Molecular point group: c1
  Charge       = 0
  Multiplicity = 1
  Basis Set: AUG-CC-PVTZ
    Blend: AUG-CC-PVTZ
  Basis Set: (AUG-CC-PVTZ AUX)
    Blend: AUG-CC-PVTZ-JKFIT
  @DF-RHF Final Energy:  -132.28771347085043
    Total Energy =                       -132.2877134708504627
  //            Monomer A HF           //
    Molecular point group: c1
  Multiplicity = 1
  Basis Set: AUG-CC-PVTZ
    Blend: AUG-CC-PVTZ
  Basis Set: (AUG-CC-PVTZ AUX)
    Blend: AUG-CC-PVTZ-JKFIT
  @DF-RHF Final Energy:   -76.06004491618025
    Total Energy =                        -76.0600449161802459
  //            Monomer B HF           //
    Molecular point group: c1

    Geometry (in Angstrom), charge = 0, multiplicity = 1:

       Center              X                  Y                   Z               Mass
    ------------   -----------------  -----------------  -----------------  -----------------
      Gh(O)           1.505968253904     0.086080856125     0.000011414631    15.994914619570
      Gh(H)           1.870398253904    -0.799759143875     0.000051414631     1.007825032230
      Gh(H)           0.547528253904    -0.059039143875    -0.000318585369     1.007825032230
         N           -1.490151746096    -0.044279143875    -0.000018585369    14.003074004430
         H           -1.961461746096    -0.398629143875     0.821921414631     1.007825032230
         H           -1.681341746096     0.949170856125    -0.025898585369     1.007825032230
         H           -1.971241746096    -0.442679143875    -0.795678585369     1.007825032230

  Charge       = 0
  Multiplicity = 1
  Basis Set: AUG-CC-PVTZ
    Blend: AUG-CC-PVTZ
  Basis Set: (AUG-CC-PVTZ AUX)
    Blend: AUG-CC-PVTZ-JKFIT

    Orbital Energies [Eh]
    ---------------------

    Doubly Occupied:

       1A    -15.542025     2A     -1.143813     3A     -0.628339
       4A     -0.627707     5A     -0.431304

  @DF-RHF Final Energy:   -56.22030089665246

   => Energetics <=

    Nuclear Repulsion Energy =             11.9656920271098866
    One-Electron Energy =                 -99.6256083961335861
    Two-Electron Energy =                  31.4396154723712478
    Total Energy =                        -56.2203008966524607

  Dipole Moment: [D]
     X:    -1.6109      Y:     0.3372      Z:     0.0006     Total:     1.6458

    SAPT Results
  --------------------------------------------------------------------------------------------------------
    Electrostatics                -16.16815758 [mEh]     -10.14567206 [kcal/mol]     -42.44949188 [kJ/mol]
      Elst10,r                    -16.31668297 [mEh]     -10.23887315 [kcal/mol]     -42.83944524 [kJ/mol]
      Elst12,r                      0.14852539 [mEh]       0.09320109 [kcal/mol]       0.38995336 [kJ/mol]

    Exchange                       15.26666005 [mEh]       9.57997381 [kcal/mol]      40.08261044 [kJ/mol]
      Exch10                       13.80674825 [mEh]       8.66386533 [kcal/mol]      36.24961254 [kJ/mol]
      Exch10(S^2)                  13.66964455 [mEh]       8.57783146 [kcal/mol]      35.88964681 [kJ/mol]
      Exch11(S^2)                   0.33048461 [mEh]       0.20738222 [kcal/mol]       0.86768721 [kJ/mol]
      Exch12(S^2)                   1.12942719 [mEh]       0.70872626 [kcal/mol]       2.96531068 [kJ/mol]

    Induction                      -5.13170302 [mEh]      -3.22019226 [kcal/mol]     -13.47328443 [kJ/mol]
      Ind20,r                      -6.65193347 [mEh]      -4.17415127 [kcal/mol]     -17.46464892 [kJ/mol]
      Ind22                        -0.63269159 [mEh]      -0.39701997 [kcal/mol]      -1.66113154 [kJ/mol]
      Exch-Ind20,r                  3.77139116 [mEh]       2.36658368 [kcal/mol]       9.90178612 [kJ/mol]
      Exch-Ind22                    0.35871187 [mEh]       0.22509509 [kcal/mol]       0.94179788 [kJ/mol]
      delta HF,r (2)               -1.97718099 [mEh]      -1.24069980 [kcal/mol]      -5.19108797 [kJ/mol]

    Dispersion                     -4.58106824 [mEh]      -2.87466372 [kcal/mol]     -12.02759301 [kJ/mol]
      Disp20                       -4.89028237 [mEh]      -3.06869852 [kcal/mol]     -12.83943459 [kJ/mol]
      Disp21                        0.06609927 [mEh]       0.04147792 [kcal/mol]       0.17354360 [kJ/mol]
      Disp22 (SDQ)                  0.04680999 [mEh]       0.02937371 [kcal/mol]       0.12289961 [kJ/mol]
      Disp22 (T)                   -0.66725215 [mEh]      -0.41870704 [kcal/mol]      -1.75187027 [kJ/mol]
      Est. Disp22 (T)              -0.79110130 [mEh]      -0.49642356 [kcal/mol]      -2.07703619 [kJ/mol]
      Exch-Disp20                   0.98740618 [mEh]       0.61960673 [kcal/mol]       2.59243456 [kJ/mol]

  Total HF                         -7.36765802 [mEh]      -4.62327521 [kcal/mol]     -19.34378346 [kJ/mol]
  Total SAPT0                     -11.27053421 [mEh]      -7.07236699 [kcal/mol]     -29.59078349 [kJ/mol]
  Total SAPT2                      -9.93607674 [mEh]      -6.23498229 [kcal/mol]     -26.08716590 [kJ/mol]
  Total SAPT2+                    -10.61426879 [mEh]      -6.66055423 [kcal/mol]     -27.86775888 [kJ/mol]

  Special recipe for scaled SAPT0 (see Manual):
    Electrostatics sSAPT0         -16.31668297 [mEh]     -10.23887315 [kcal/mol]     -42.83944524 [kJ/mol]
    Exchange sSAPT0                13.80674825 [mEh]       8.66386533 [kcal/mol]      36.24961254 [kJ/mol]
    Induction sSAPT0               -4.74310251 [mEh]      -2.97634176 [kcal/mol]     -12.45301391 [kJ/mol]
    Dispersion sSAPT0              -3.87286677 [mEh]      -2.43026059 [kcal/mol]     -10.16821030 [kJ/mol]
  Total sSAPT0                    -11.12590399 [mEh]      -6.98161016 [kcal/mol]     -29.21105691 [kJ/mol]
  --------------------------------------------------------------------------------------------------------

*** Psi4 exiting successfully. Buy a developer a beer!
