                               Psi4 1.4a2.dev224

  ==> Input File <==

--------------------------------------------------------------------------
#Generated by lconvert.py for sapt job

memory 50 GB

molecule  {
0 1
  O       1.584940    0.104690    0.000010
  H       1.949370   -0.781150    0.000050
  H       0.626500   -0.040430   -0.000320
--
0 1
  N      -2.022480   -0.021240    0.000080
  H      -2.493790   -0.375590    0.822010
  H      -2.213680    0.972210   -0.025810
  H      -2.503570   -0.419650   -0.795580
units angstrom
no_reorient
symmetry c1
}

set {
scf_type DF
basis aug-cc-pvtz
freeze_core True
guess SAD
}
energy('sapt2+')
--------------------------------------------------------------------------

  //              Dimer HF             //
    Molecular point group: c1
  Charge       = 0
  Multiplicity = 1
  Basis Set: AUG-CC-PVTZ
    Blend: AUG-CC-PVTZ
  Basis Set: (AUG-CC-PVTZ AUX)
    Blend: AUG-CC-PVTZ-JKFIT
  @DF-RHF Final Energy:  -132.28601520314123
    Total Energy =                       -132.2860152031412326
  //            Monomer A HF           //
    Molecular point group: c1
  Multiplicity = 1
  Basis Set: AUG-CC-PVTZ
    Blend: AUG-CC-PVTZ
  Basis Set: (AUG-CC-PVTZ AUX)
    Blend: AUG-CC-PVTZ-JKFIT
  @DF-RHF Final Energy:   -76.06001707053136
    Total Energy =                        -76.0600170705313587
  //            Monomer B HF           //
    Molecular point group: c1

    Geometry (in Angstrom), charge = 0, multiplicity = 1:

       Center              X                  Y                   Z               Mass
    ------------   -----------------  -----------------  -----------------  -----------------
      Gh(O)           1.803034376633     0.083928351934    -0.000036605832    15.994914619570
      Gh(H)           2.167464376633    -0.801911648066     0.000003394168     1.007825032230
      Gh(H)           0.844594376633    -0.061191648066    -0.000366605832     1.007825032230
         N           -1.804385623367    -0.042001648066     0.000033394168    14.003074004430
         H           -2.275695623367    -0.396351648066     0.821963394168     1.007825032230
         H           -1.995585623367     0.951448351934    -0.025856605832     1.007825032230
         H           -2.285475623367    -0.440411648066    -0.795626605832     1.007825032230

  Charge       = 0
  Multiplicity = 1
  Basis Set: AUG-CC-PVTZ
    Blend: AUG-CC-PVTZ
  Basis Set: (AUG-CC-PVTZ AUX)
    Blend: AUG-CC-PVTZ-JKFIT

    Orbital Energies [Eh]
    ---------------------

    Doubly Occupied:

       1A    -15.542040     2A     -1.143821     3A     -0.628348
       4A     -0.627717     5A     -0.431305

  @DF-RHF Final Energy:   -56.22028333093245

   => Energetics <=

    Nuclear Repulsion Energy =             11.9657013245438009
    One-Electron Energy =                 -99.6255061031878739
    Two-Electron Energy =                  31.4395214477116234
    Total Energy =                        -56.2202833309324461

  Dipole Moment: [D]
     X:    -1.6113      Y:     0.3372      Z:     0.0006     Total:     1.6462

    SAPT Results
  --------------------------------------------------------------------------------------------------------
    Electrostatics                 -6.34576821 [mEh]      -3.98202967 [kcal/mol]     -16.66081213 [kJ/mol]
      Elst10,r                     -6.55838192 [mEh]      -4.11544679 [kcal/mol]     -17.21902936 [kJ/mol]
      Elst12,r                      0.21261372 [mEh]       0.13341712 [kcal/mol]       0.55821723 [kJ/mol]

    Exchange                        2.12017061 [mEh]       1.33042715 [kcal/mol]       5.56650718 [kJ/mol]
      Exch10                        1.81892900 [mEh]       1.14139518 [kcal/mol]       4.77559743 [kJ/mol]
      Exch10(S^2)                   1.81592343 [mEh]       1.13950916 [kcal/mol]       4.76770632 [kJ/mol]
      Exch11(S^2)                   0.04433925 [mEh]       0.02782330 [kcal/mol]       0.11641267 [kJ/mol]
      Exch12(S^2)                   0.25690237 [mEh]       0.16120867 [kcal/mol]       0.67449708 [kJ/mol]

    Induction                      -1.04154189 [mEh]      -0.65357740 [kcal/mol]      -2.73456785 [kJ/mol]
      Ind20,r                      -1.14991066 [mEh]      -0.72157983 [kcal/mol]      -3.01909002 [kJ/mol]
      Ind22                        -0.10657703 [mEh]      -0.06687810 [kcal/mol]      -0.27981796 [kJ/mol]
      Exch-Ind20,r                  0.43572122 [mEh]       0.27341919 [kcal/mol]       1.14398590 [kJ/mol]
      Exch-Ind22                    0.04038390 [mEh]       0.02534128 [kcal/mol]       0.10602791 [kJ/mol]
      delta HF,r (2)               -0.26115931 [mEh]      -0.16387994 [kcal/mol]      -0.68567368 [kJ/mol]

    Dispersion                     -1.45232562 [mEh]      -0.91134808 [kcal/mol]      -3.81308038 [kJ/mol]
      Disp20                       -1.36295755 [mEh]      -0.85526878 [kcal/mol]      -3.57844456 [kJ/mol]
      Disp21                       -0.01236494 [mEh]      -0.00775912 [kcal/mol]      -0.03246415 [kJ/mol]
      Disp22 (SDQ)                  0.00464078 [mEh]       0.00291213 [kcal/mol]       0.01218436 [kJ/mol]
      Disp22 (T)                   -0.20653967 [mEh]      -0.12960560 [kcal/mol]      -0.54226984 [kJ/mol]
      Est. Disp22 (T)              -0.24180476 [mEh]      -0.15173477 [kcal/mol]      -0.63485830 [kJ/mol]
      Exch-Disp20                   0.16016085 [mEh]       0.10050245 [kcal/mol]       0.42050226 [kJ/mol]

  Total HF                         -5.71480168 [mEh]      -3.58609219 [kcal/mol]     -15.00420974 [kJ/mol]
  Total SAPT0                      -6.91759838 [mEh]      -4.34085852 [kcal/mol]     -18.16215204 [kJ/mol]
  Total SAPT2                      -6.46993618 [mEh]      -4.05994625 [kcal/mol]     -16.98681510 [kJ/mol]
  Total SAPT2+                     -6.71946510 [mEh]      -4.21652801 [kcal/mol]     -17.64195318 [kJ/mol]

  Special recipe for scaled SAPT0 (see Manual):
    Electrostatics sSAPT0          -6.55838192 [mEh]      -4.11544679 [kcal/mol]     -17.21902936 [kJ/mol]
    Exchange sSAPT0                 1.81892900 [mEh]       1.14139518 [kcal/mol]       4.77559743 [kJ/mol]
    Induction sSAPT0               -0.97318166 [mEh]      -0.61068071 [kcal/mol]      -2.55508811 [kJ/mol]
    Dispersion sSAPT0              -1.20200013 [mEh]      -0.75426647 [kcal/mol]      -3.15585090 [kJ/mol]
  Total sSAPT0                     -6.91463471 [mEh]      -4.33899879 [kcal/mol]     -18.15437094 [kJ/mol]
  --------------------------------------------------------------------------------------------------------

*** Psi4 exiting successfully. Buy a developer a beer!
