                               Psi4 1.4a2.dev224

  ==> Input File <==

--------------------------------------------------------------------------
#Generated by lconvert.py for sapt job

memory 50 GB

molecule  {
0 1
  O       1.584940    0.104690    0.000010
  H       1.949370   -0.781150    0.000050
  H       0.626500   -0.040430   -0.000320
--
0 1
  N      -2.633780   -0.016810    0.000170
  H      -3.105090   -0.371160    0.822100
  H      -2.824980    0.976630   -0.025710
  H      -3.114880   -0.415220   -0.795490
units angstrom
no_reorient
symmetry c1
}

set {
scf_type DF
basis aug-cc-pvtz
freeze_core True
guess SAD
}
energy('sapt2+')
--------------------------------------------------------------------------

  //              Dimer HF             //
    Molecular point group: c1
  Charge       = 0
  Multiplicity = 1
  Basis Set: AUG-CC-PVTZ
    Blend: AUG-CC-PVTZ
  Basis Set: (AUG-CC-PVTZ AUX)
    Blend: AUG-CC-PVTZ-JKFIT
  @DF-RHF Final Energy:  -132.28364199496875
    Total Energy =                       -132.2836419949687468
  //            Monomer A HF           //
    Molecular point group: c1
  Multiplicity = 1
  Basis Set: AUG-CC-PVTZ
    Blend: AUG-CC-PVTZ
  Basis Set: (AUG-CC-PVTZ AUX)
    Blend: AUG-CC-PVTZ-JKFIT
  @DF-RHF Final Energy:   -76.06000315254524
    Total Energy =                        -76.0600031525452351
  //            Monomer B HF           //
    Molecular point group: c1

    Geometry (in Angstrom), charge = 0, multiplicity = 1:

       Center              X                  Y                   Z               Mass
    ------------   -----------------  -----------------  -----------------  -----------------
      Gh(O)           2.100100499362     0.081775847743    -0.000080629654    15.994914619570
      Gh(H)           2.464530499362    -0.804064152257    -0.000040629654     1.007825032230
      Gh(H)           1.141660499362    -0.063344152257    -0.000410629654     1.007825032230
         N           -2.118619500638    -0.039724152257     0.000079370346    14.003074004430
         H           -2.589929500638    -0.394074152257     0.822009370346     1.007825032230
         H           -2.309819500638     0.953715847743    -0.025800629654     1.007825032230
         H           -2.599719500638    -0.438134152257    -0.795580629654     1.007825032230

  Charge       = 0
  Multiplicity = 1
  Basis Set: AUG-CC-PVTZ
    Blend: AUG-CC-PVTZ
  Basis Set: (AUG-CC-PVTZ AUX)
    Blend: AUG-CC-PVTZ-JKFIT

    Orbital Energies [Eh]
    ---------------------

    Doubly Occupied:

       1A    -15.542047     2A     -1.143825     3A     -0.628349
       4A     -0.627722     5A     -0.431307

  @DF-RHF Final Energy:   -56.22027817104397

   => Energetics <=

    Nuclear Repulsion Energy =             11.9657236911848219
    One-Electron Energy =                 -99.6255020752924025
    Two-Electron Energy =                  31.4395002130636172
    Total Energy =                        -56.2202781710439652

  Dipole Moment: [D]
     X:    -1.6115      Y:     0.3373      Z:     0.0006     Total:     1.6465

    SAPT Results
  --------------------------------------------------------------------------------------------------------
    Electrostatics                 -3.17672468 [mEh]      -1.99342483 [kcal/mol]      -8.34048950 [kJ/mol]
      Elst10,r                     -3.34224139 [mEh]      -2.09728813 [kcal/mol]      -8.77505356 [kJ/mol]
      Elst12,r                      0.16551671 [mEh]       0.10386330 [kcal/mol]       0.43456406 [kJ/mol]

    Exchange                        0.28670392 [mEh]       0.17990942 [kcal/mol]       0.75274103 [kJ/mol]
      Exch10                        0.23353258 [mEh]       0.14654391 [kcal/mol]       0.61313972 [kJ/mol]
      Exch10(S^2)                   0.23347158 [mEh]       0.14650563 [kcal/mol]       0.61297956 [kJ/mol]
      Exch11(S^2)                   0.00538508 [mEh]       0.00337919 [kcal/mol]       0.01413851 [kJ/mol]
      Exch12(S^2)                   0.04778626 [mEh]       0.02998633 [kcal/mol]       0.12546280 [kJ/mol]

    Induction                      -0.26811631 [mEh]      -0.16824552 [kcal/mol]      -0.70393927 [kJ/mol]
      Ind20,r                      -0.26641801 [mEh]      -0.16717983 [kcal/mol]      -0.69948040 [kJ/mol]
      Ind22                        -0.01995427 [mEh]      -0.01252150 [kcal/mol]      -0.05238994 [kJ/mol]
      Exch-Ind20,r                  0.05074266 [mEh]       0.03184150 [kcal/mol]       0.13322483 [kJ/mol]
      Exch-Ind22                    0.00380054 [mEh]       0.00238488 [kcal/mol]       0.00997832 [kJ/mol]
      delta HF,r (2)               -0.03628722 [mEh]      -0.02277058 [kcal/mol]      -0.09527209 [kJ/mol]

    Dispersion                     -0.49473534 [mEh]      -0.31045111 [kcal/mol]      -1.29892744 [kJ/mol]
      Disp20                       -0.43511166 [mEh]      -0.27303669 [kcal/mol]      -1.14238549 [kJ/mol]
      Disp21                       -0.00270934 [mEh]      -0.00170013 [kcal/mol]      -0.00711336 [kJ/mol]
      Disp22 (SDQ)                  0.00002263 [mEh]       0.00001420 [kcal/mol]       0.00005942 [kJ/mol]
      Disp22 (T)                   -0.07056069 [mEh]      -0.04427750 [kcal/mol]      -0.18525708 [kJ/mol]
      Est. Disp22 (T)              -0.08088390 [mEh]      -0.05075541 [kcal/mol]      -0.21236064 [kJ/mol]
      Exch-Disp20                   0.02394692 [mEh]       0.01502692 [kcal/mol]       0.06287263 [kJ/mol]

  Total HF                         -3.36067138 [mEh]      -2.10885313 [kcal/mol]      -8.82344149 [kJ/mol]
  Total SAPT0                      -3.77183612 [mEh]      -2.36686290 [kcal/mol]      -9.90295436 [kJ/mol]
  Total SAPT2                      -3.56930181 [mEh]      -2.23977070 [kcal/mol]      -9.37120060 [kJ/mol]
  Total SAPT2+                     -3.65287241 [mEh]      -2.29221204 [kcal/mol]      -9.59061518 [kJ/mol]

  Special recipe for scaled SAPT0 (see Manual):
    Electrostatics sSAPT0          -3.34224139 [mEh]      -2.09728813 [kcal/mol]      -8.77505356 [kJ/mol]
    Exchange sSAPT0                 0.23353258 [mEh]       0.14654391 [kcal/mol]       0.61313972 [kJ/mol]
    Induction sSAPT0               -0.25192279 [mEh]      -0.15808394 [kcal/mol]      -0.66142320 [kJ/mol]
    Dispersion sSAPT0              -0.41114596 [mEh]      -0.25799799 [kcal/mol]      -1.07946357 [kJ/mol]
  Total sSAPT0                     -3.77177756 [mEh]      -2.36682615 [kcal/mol]      -9.90280061 [kJ/mol]
  --------------------------------------------------------------------------------------------------------

*** Psi4 exiting successfully. Buy a developer a beer!
