                               Psi4 1.4a2.dev224

  ==> Input File <==

--------------------------------------------------------------------------
#Generated by lconvert.py for sapt job

memory 50 GB

molecule  {
0 1
  O       1.584940    0.104690    0.000010
  H       1.949370   -0.781150    0.000050
  H       0.626500   -0.040430   -0.000320
--
0 1
  N      -1.309290   -0.026400   -0.000030
  H      -1.780600   -0.380750    0.821900
  H      -1.500490    0.967040   -0.025910
  H      -1.790390   -0.424810   -0.795690
units angstrom
no_reorient
symmetry c1
}

set {
scf_type DF
basis aug-cc-pvtz
freeze_core True
guess SAD
}
energy('sapt2+')
--------------------------------------------------------------------------

  //              Dimer HF             //
    Molecular point group: c1
  Charge       = 0
  Multiplicity = 1
  Basis Set: AUG-CC-PVTZ
    Blend: AUG-CC-PVTZ
  Basis Set: (AUG-CC-PVTZ AUX)
    Blend: AUG-CC-PVTZ-JKFIT
  @DF-RHF Final Energy:  -132.28716073713363
    Total Energy =                       -132.2871607371336324
  //            Monomer A HF           //
    Molecular point group: c1
  Multiplicity = 1
  Basis Set: AUG-CC-PVTZ
    Blend: AUG-CC-PVTZ
  Basis Set: (AUG-CC-PVTZ AUX)
    Blend: AUG-CC-PVTZ-JKFIT
  @DF-RHF Final Energy:   -76.06005328739988
    Total Energy =                        -76.0600532873998674
  //            Monomer B HF           //
    Molecular point group: c1

    Geometry (in Angstrom), charge = 0, multiplicity = 1:

       Center              X                  Y                   Z               Mass
    ------------   -----------------  -----------------  -----------------  -----------------
      Gh(O)           1.456454616963     0.086436180409     0.000016561851    15.994914619570
      Gh(H)           1.820884616963    -0.799403819591     0.000056561851     1.007825032230
      Gh(H)           0.498014616963    -0.058683819591    -0.000313438149     1.007825032230
         N           -1.437775383037    -0.044653819591    -0.000023438149    14.003074004430
         H           -1.909085383037    -0.399003819591     0.821906561851     1.007825032230
         H           -1.628975383037     0.948786180409    -0.025903438149     1.007825032230
         H           -1.918875383037    -0.443063819591    -0.795683438149     1.007825032230

  Charge       = 0
  Multiplicity = 1
  Basis Set: AUG-CC-PVTZ
    Blend: AUG-CC-PVTZ
  Basis Set: (AUG-CC-PVTZ AUX)
    Blend: AUG-CC-PVTZ-JKFIT

    Orbital Energies [Eh]
    ---------------------

    Doubly Occupied:

       1A    -15.542018     2A     -1.143813     3A     -0.628335
       4A     -0.627708     5A     -0.431306

  @DF-RHF Final Energy:   -56.22030876099596

   => Energetics <=

    Nuclear Repulsion Energy =             11.9657236911848237
    One-Electron Energy =                 -99.6257049714362779
    Two-Electron Energy =                  31.4396725192555024
    Total Energy =                        -56.2203087609959553

  Dipole Moment: [D]
     X:    -1.6110      Y:     0.3372      Z:     0.0006     Total:     1.6459

    SAPT Results
  --------------------------------------------------------------------------------------------------------
    Electrostatics                -19.46203447 [mEh]     -12.21261101 [kcal/mol]     -51.09756447 [kJ/mol]
      Elst10,r                    -19.57522498 [mEh]     -12.28363913 [kcal/mol]     -51.39474610 [kJ/mol]
      Elst12,r                      0.11319051 [mEh]       0.07102811 [kcal/mol]       0.29718163 [kJ/mol]

    Exchange                       21.11919889 [mEh]      13.25249738 [kcal/mol]      55.44844904 [kJ/mol]
      Exch10                       19.26992522 [mEh]      12.09206064 [kcal/mol]      50.59318170 [kJ/mol]
      Exch10(S^2)                  19.01379472 [mEh]      11.93133632 [kcal/mol]      49.92071117 [kJ/mol]
      Exch11(S^2)                   0.45177227 [mEh]       0.28349138 [kcal/mol]       1.18612794 [kJ/mol]
      Exch12(S^2)                   1.39750139 [mEh]       0.87694536 [kcal/mol]       3.66913939 [kJ/mol]

    Induction                      -6.84642100 [mEh]      -4.29619404 [kcal/mol]     -17.97527586 [kJ/mol]
      Ind20,r                      -9.13661060 [mEh]      -5.73330971 [kcal/mol]     -23.98816784 [kJ/mol]
      Ind22                        -0.86110255 [mEh]      -0.54035001 [kcal/mol]      -2.26082443 [kJ/mol]
      Exch-Ind20,r                  5.39081277 [mEh]       3.38278608 [kcal/mol]      14.15357697 [kJ/mol]
      Exch-Ind22                    0.50807053 [mEh]       0.31881907 [kcal/mol]       1.33393900 [kJ/mol]
      delta HF,r (2)               -2.74759114 [mEh]      -1.72413947 [kcal/mol]      -7.21379955 [kJ/mol]

    Dispersion                     -5.57928509 [mEh]      -3.50105425 [kcal/mol]     -14.64841100 [kJ/mol]
      Disp20                       -6.11791507 [mEh]      -3.83904966 [kcal/mol]     -16.06258379 [kJ/mol]
      Disp21                        0.12506226 [mEh]       0.07847775 [kcal/mol]       0.32835091 [kJ/mol]
      Disp22 (SDQ)                  0.06308614 [mEh]       0.03958715 [kcal/mol]       0.16563263 [kJ/mol]
      Disp22 (T)                   -0.81502074 [mEh]      -0.51143324 [kcal/mol]      -2.13983667 [kJ/mol]
      Est. Disp22 (T)              -0.96849585 [mEh]      -0.60774032 [kcal/mol]      -2.54278551 [kJ/mol]
      Exch-Disp20                   1.31897743 [mEh]       0.82767083 [kcal/mol]       3.46297476 [kJ/mol]

  Total HF                         -6.79868874 [mEh]      -4.26624159 [kcal/mol]     -17.84995482 [kJ/mol]
  Total SAPT0                     -11.59762637 [mEh]      -7.27762042 [kcal/mol]     -30.44956385 [kJ/mol]
  Total SAPT2                      -9.98819422 [mEh]      -6.26768650 [kcal/mol]     -26.22400032 [kJ/mol]
  Total SAPT2+                    -10.76854168 [mEh]      -6.75736192 [kcal/mol]     -28.27280228 [kJ/mol]

  Special recipe for scaled SAPT0 (see Manual):
    Electrostatics sSAPT0         -19.57522498 [mEh]     -12.28363913 [kcal/mol]     -51.39474610 [kJ/mol]
    Exchange sSAPT0                19.26992522 [mEh]      12.09206064 [kcal/mol]      50.59318170 [kJ/mol]
    Induction sSAPT0               -6.27258589 [mEh]      -3.93610707 [kcal/mol]     -16.46867199 [kJ/mol]
    Dispersion sSAPT0              -4.74491345 [mEh]      -2.97747814 [kcal/mol]     -12.45776854 [kJ/mol]
  Total sSAPT0                    -11.32279910 [mEh]      -7.10516370 [kcal/mol]     -29.72800493 [kJ/mol]
  --------------------------------------------------------------------------------------------------------

*** Psi4 exiting successfully. Buy a developer a beer!
