                               Psi4 1.4a2.dev224

  ==> Input File <==

--------------------------------------------------------------------------
#Generated by lconvert.py for sapt job

memory 50 GB

molecule  {
0 1
  O       1.584940    0.104690    0.000010
  H       1.949370   -0.781150    0.000050
  H       0.626500   -0.040430   -0.000320
--
0 1
  N      -1.207410   -0.027140   -0.000050
  H      -1.678720   -0.381490    0.821890
  H      -1.398610    0.966300   -0.025930
  H      -1.688500   -0.425550   -0.795710
units angstrom
no_reorient
symmetry c1
}

set {
scf_type DF
basis aug-cc-pvtz
freeze_core True
guess SAD
}
energy('sapt2+')
--------------------------------------------------------------------------

  //              Dimer HF             //
    Molecular point group: c1
  Charge       = 0
  Multiplicity = 1
  Basis Set: AUG-CC-PVTZ
    Blend: AUG-CC-PVTZ
  Basis Set: (AUG-CC-PVTZ AUX)
    Blend: AUG-CC-PVTZ-JKFIT
  @DF-RHF Final Energy:  -132.28594464058122
    Total Energy =                       -132.2859446405811923
  //            Monomer A HF           //
    Molecular point group: c1
  Multiplicity = 1
  Basis Set: AUG-CC-PVTZ
    Blend: AUG-CC-PVTZ
  Basis Set: (AUG-CC-PVTZ AUX)
    Blend: AUG-CC-PVTZ-JKFIT
  @DF-RHF Final Energy:   -76.06006306795638
    Total Energy =                        -76.0600630679563778
  //            Monomer B HF           //
    Molecular point group: c1

    Geometry (in Angstrom), charge = 0, multiplicity = 1:

       Center              X                  Y                   Z               Mass
    ------------   -----------------  -----------------  -----------------  -----------------
      Gh(O)           1.406944976662     0.086795788977     0.000025993357    15.994914619570
      Gh(H)           1.771374976662    -0.799044211023     0.000065993357     1.007825032230
      Gh(H)           0.448504976662    -0.058324211023    -0.000304006643     1.007825032230
         N           -1.385405023338    -0.045034211023    -0.000034006643    14.003074004430
         H           -1.856715023338    -0.399384211023     0.821905993357     1.007825032230
         H           -1.576605023338     0.948405788977    -0.025914006643     1.007825032230
         H           -1.866495023338    -0.443444211023    -0.795694006643     1.007825032230

  Charge       = 0
  Multiplicity = 1
  Basis Set: AUG-CC-PVTZ
    Blend: AUG-CC-PVTZ
  Basis Set: (AUG-CC-PVTZ AUX)
    Blend: AUG-CC-PVTZ-JKFIT

    Orbital Energies [Eh]
    ---------------------

    Doubly Occupied:

       1A    -15.542005     2A     -1.143811     3A     -0.628333
       4A     -0.627704     5A     -0.431305

  @DF-RHF Final Energy:   -56.22031717534762

   => Energetics <=

    Nuclear Repulsion Energy =             11.9657087878859318
    One-Electron Energy =                 -99.6257345780380348
    Two-Electron Energy =                  31.4397086148044842
    Total Energy =                        -56.2203171753476170

  Dipole Moment: [D]
     X:    -1.6110      Y:     0.3372      Z:     0.0006     Total:     1.6459

    SAPT Results
  --------------------------------------------------------------------------------------------------------
    Electrostatics                -23.61674527 [mEh]     -14.81973139 [kcal/mol]     -62.00575615 [kJ/mol]
      Elst10,r                    -23.68643285 [mEh]     -14.86346101 [kcal/mol]     -62.18872087 [kJ/mol]
      Elst12,r                      0.06968758 [mEh]       0.04372962 [kcal/mol]       0.18296472 [kJ/mol]

    Exchange                       29.16697174 [mEh]      18.30255109 [kcal/mol]      76.57787376 [kJ/mol]
      Exch10                       26.85058535 [mEh]      16.84899668 [kcal/mol]      70.49620212 [kJ/mol]
      Exch10(S^2)                  26.37426588 [mEh]      16.55010170 [kcal/mol]      69.24562552 [kJ/mol]
      Exch11(S^2)                   0.61115762 [mEh]       0.38350719 [kcal/mol]       1.60459410 [kJ/mol]
      Exch12(S^2)                   1.70522878 [mEh]       1.07004721 [kcal/mol]       4.47707753 [kJ/mol]

    Induction                      -9.18846143 [mEh]      -5.76584660 [kcal/mol]     -24.12430217 [kJ/mol]
      Ind20,r                     -12.64019768 [mEh]      -7.93184380 [kcal/mol]     -33.18683445 [kJ/mol]
      Ind22                        -1.17694221 [mEh]      -0.73854238 [kcal/mol]      -3.09006134 [kJ/mol]
      Exch-Ind20,r                  7.70080969 [mEh]       4.83233103 [kcal/mol]      20.21847305 [kJ/mol]
      Exch-Ind22                    0.71703055 [mEh]       0.44994347 [kcal/mol]       1.88256346 [kJ/mol]
      delta HF,r (2)               -3.78916178 [mEh]      -2.37773492 [kcal/mol]      -9.94844289 [kJ/mol]

    Dispersion                     -6.81134904 [mEh]      -4.27418605 [kcal/mol]     -17.88319444 [kJ/mol]
      Disp20                       -7.67428554 [mEh]      -4.81568688 [kcal/mol]     -20.14883392 [kJ/mol]
      Disp21                        0.21737904 [mEh]       0.13640741 [kcal/mol]       0.57072858 [kJ/mol]
      Disp22 (SDQ)                  0.08292670 [mEh]       0.05203729 [kcal/mol]       0.21772402 [kJ/mol]
      Disp22 (T)                   -1.01285570 [mEh]      -0.63557654 [kcal/mol]      -2.65925226 [kJ/mol]
      Est. Disp22 (T)              -1.18868060 [mEh]      -0.74590834 [kcal/mol]      -3.12088049 [kJ/mol]
      Exch-Disp20                   1.75131137 [mEh]       1.09896448 [kcal/mol]       4.59806737 [kJ/mol]

  Total HF                         -5.56439728 [mEh]      -3.49171201 [kcal/mol]     -14.60932304 [kJ/mol]
  Total SAPT0                     -11.48737145 [mEh]      -7.20843441 [kcal/mol]     -30.16008959 [kJ/mol]
  Total SAPT2                      -9.56120913 [mEh]      -5.99974931 [kcal/mol]     -25.10295111 [kJ/mol]
  Total SAPT2+                    -10.44958400 [mEh]      -6.55721295 [kcal/mol]     -27.43537900 [kJ/mol]

  Special recipe for scaled SAPT0 (see Manual):
    Electrostatics sSAPT0         -23.68643285 [mEh]     -14.86346101 [kcal/mol]     -62.18872087 [kJ/mol]
    Exchange sSAPT0                26.85058535 [mEh]      16.84899668 [kcal/mol]      70.49620212 [kJ/mol]
    Induction sSAPT0               -8.30373917 [mEh]      -5.21067500 [kcal/mol]     -21.80146419 [kJ/mol]
    Dispersion sSAPT0              -5.82636412 [mEh]      -3.65609868 [kcal/mol]     -15.29711688 [kJ/mol]
  Total sSAPT0                    -10.96595079 [mEh]      -6.88123801 [kcal/mol]     -28.79109982 [kJ/mol]
  --------------------------------------------------------------------------------------------------------

*** Psi4 exiting successfully. Buy a developer a beer!
