                               Psi4 1.4a2.dev224

  ==> Input File <==

--------------------------------------------------------------------------
#Generated by lconvert.py for sapt job

memory 50 GB

molecule  {
0 1
  O       1.584940    0.104690    0.000010
  H       1.949370   -0.781150    0.000050
  H       0.626500   -0.040430   -0.000320
--
0 1
  N      -1.513060   -0.024930   -0.000000
  H      -1.984370   -0.379280    0.821930
  H      -1.704260    0.968520   -0.025880
  H      -1.994150   -0.423340   -0.795660
units angstrom
no_reorient
symmetry c1
}

set {
scf_type DF
basis aug-cc-pvtz
freeze_core True
guess SAD
}
energy('sapt2+')
--------------------------------------------------------------------------

  //              Dimer HF             //
    Molecular point group: c1
  Charge       = 0
  Multiplicity = 1
  Basis Set: AUG-CC-PVTZ
    Blend: AUG-CC-PVTZ
  Basis Set: (AUG-CC-PVTZ AUX)
    Blend: AUG-CC-PVTZ-JKFIT
  @DF-RHF Final Energy:  -132.28783334504226
    Total Energy =                       -132.2878333450422588
  //            Monomer A HF           //
    Molecular point group: c1
  Multiplicity = 1
  Basis Set: AUG-CC-PVTZ
    Blend: AUG-CC-PVTZ
  Basis Set: (AUG-CC-PVTZ AUX)
    Blend: AUG-CC-PVTZ-JKFIT
  @DF-RHF Final Energy:   -76.06003816295059
    Total Energy =                        -76.0600381629505762
  //            Monomer B HF           //
    Molecular point group: c1

    Geometry (in Angstrom), charge = 0, multiplicity = 1:

       Center              X                  Y                   Z               Mass
    ------------   -----------------  -----------------  -----------------  -----------------
      Gh(O)           1.555477894204     0.085721535202     0.000001983125    15.994914619570
      Gh(H)           1.919907894204    -0.800118464798     0.000041983125     1.007825032230
      Gh(H)           0.597037894204    -0.059398464798    -0.000328016875     1.007825032230
         N           -1.542522105796    -0.043898464798    -0.000008016875    14.003074004430
         H           -2.013832105796    -0.398248464798     0.821921983125     1.007825032230
         H           -1.733722105796     0.949551535202    -0.025888016875     1.007825032230
         H           -2.023612105796    -0.442308464798    -0.795668016875     1.007825032230

  Charge       = 0
  Multiplicity = 1
  Basis Set: AUG-CC-PVTZ
    Blend: AUG-CC-PVTZ
  Basis Set: (AUG-CC-PVTZ AUX)
    Blend: AUG-CC-PVTZ-JKFIT

    Orbital Energies [Eh]
    ---------------------

    Doubly Occupied:

       1A    -15.542028     2A     -1.143815     3A     -0.628341
       4A     -0.627710     5A     -0.431304

  @DF-RHF Final Energy:   -56.22029419530399

   => Energetics <=

    Nuclear Repulsion Energy =             11.9657023473957054
    One-Electron Energy =                 -99.6255961836403259
    Two-Electron Energy =                  31.4395996409406351
    Total Energy =                        -56.2202941953039854

  Dipole Moment: [D]
     X:    -1.6109      Y:     0.3372      Z:     0.0006     Total:     1.6458

    SAPT Results
  --------------------------------------------------------------------------------------------------------
    Electrostatics                -13.54696638 [mEh]      -8.50084975 [kcal/mol]     -35.56755534 [kJ/mol]
      Elst10,r                    -13.72251591 [mEh]      -8.61100874 [kcal/mol]     -36.02846056 [kJ/mol]
      Elst12,r                      0.17554953 [mEh]       0.11015899 [kcal/mol]       0.46090522 [kJ/mol]

    Exchange                       11.01940129 [mEh]       6.91477871 [kcal/mol]      28.93143410 [kJ/mol]
      Exch10                        9.87768793 [mEh]       6.19834275 [kcal/mol]      25.93386608 [kJ/mol]
      Exch10(S^2)                   9.80458918 [mEh]       6.15247260 [kcal/mol]      25.74194535 [kJ/mol]
      Exch11(S^2)                   0.23973146 [mEh]       0.15043376 [kcal/mol]       0.62941485 [kJ/mol]
      Exch12(S^2)                   0.90198191 [mEh]       0.56600219 [kcal/mol]       2.36815317 [kJ/mol]

    Induction                      -3.87048785 [mEh]      -2.42876779 [kcal/mol]     -10.16196444 [kJ/mol]
      Ind20,r                      -4.87663403 [mEh]      -3.06013406 [kcal/mol]     -12.80360089 [kJ/mol]
      Ind22                        -0.46655016 [mEh]      -0.29276465 [kcal/mol]      -1.22492727 [kJ/mol]
      Exch-Ind20,r                  2.63635124 [mEh]       1.65433538 [kcal/mol]       6.92173923 [kJ/mol]
      Exch-Ind22                    0.25222112 [mEh]       0.15827114 [kcal/mol]       0.66220646 [kJ/mol]
      delta HF,r (2)               -1.41587601 [mEh]      -0.88847561 [kcal/mol]      -3.71738196 [kJ/mol]

    Dispersion                     -3.76818455 [mEh]      -2.36457151 [kcal/mol]      -9.89336719 [kJ/mol]
      Disp20                       -3.92036390 [mEh]      -2.46006549 [kcal/mol]     -10.29291400 [kJ/mol]
      Disp21                        0.02955045 [mEh]       0.01854319 [kcal/mol]       0.07758470 [kJ/mol]
      Disp22 (SDQ)                  0.03400269 [mEh]       0.02133701 [kcal/mol]       0.08927406 [kJ/mol]
      Disp22 (T)                   -0.54612204 [mEh]      -0.34269675 [kcal/mol]      -1.43384322 [kJ/mol]
      Est. Disp22 (T)              -0.64690648 [mEh]      -0.40593994 [kcal/mol]      -1.69845273 [kJ/mol]
      Exch-Disp20                   0.73553268 [mEh]       0.46155372 [kcal/mol]       1.93114078 [kJ/mol]

  Total HF                         -7.50098679 [mEh]      -4.70694027 [kcal/mol]     -19.69383810 [kJ/mol]
  Total SAPT0                     -10.68581801 [mEh]      -6.70545204 [kcal/mol]     -28.05561132 [kJ/mol]
  Total SAPT2                      -9.58288416 [mEh]      -6.01335060 [kcal/mol]     -25.15985889 [kJ/mol]
  Total SAPT2+                    -10.16623749 [mEh]      -6.37941034 [kcal/mol]     -26.69145286 [kJ/mol]

  Special recipe for scaled SAPT0 (see Manual):
    Electrostatics sSAPT0         -13.72251591 [mEh]      -8.61100874 [kcal/mol]     -36.02846056 [kJ/mol]
    Exchange sSAPT0                 9.87768793 [mEh]       6.19834275 [kcal/mol]      25.93386608 [kJ/mol]
    Induction sSAPT0               -3.59675162 [mEh]      -2.25699572 [kcal/mol]      -9.44327009 [kJ/mol]
    Dispersion sSAPT0              -3.16825683 [mEh]      -1.98811118 [kcal/mol]      -8.31825716 [kJ/mol]
  Total sSAPT0                    -10.60983644 [mEh]      -6.65777288 [kcal/mol]     -27.85612172 [kJ/mol]
  --------------------------------------------------------------------------------------------------------

*** Psi4 exiting successfully. Buy a developer a beer!
