                               Psi4 1.4a2.dev224

  ==> Input File <==

--------------------------------------------------------------------------
#Generated by lconvert.py for sapt job

memory 50 GB

molecule  {
0 1
  O       1.584940    0.104690    0.000010
  H       1.949370   -0.781150    0.000050
  H       0.626500   -0.040430   -0.000320
--
0 1
  N      -1.003640   -0.028620   -0.000080
  H      -1.474950   -0.382970    0.821850
  H      -1.194840    0.964830   -0.025960
  H      -1.484730   -0.427030   -0.795740
units angstrom
no_reorient
symmetry c1
}

set {
scf_type DF
basis aug-cc-pvtz
freeze_core True
guess SAD
}
energy('sapt2+')
--------------------------------------------------------------------------

  //              Dimer HF             //
    Molecular point group: c1
  Charge       = 0
  Multiplicity = 1
  Basis Set: AUG-CC-PVTZ
    Blend: AUG-CC-PVTZ
  Basis Set: (AUG-CC-PVTZ AUX)
    Blend: AUG-CC-PVTZ-JKFIT
  @DF-RHF Final Energy:  -132.28005836974032
    Total Energy =                       -132.2800583697403454
  //            Monomer A HF           //
    Molecular point group: c1
  Multiplicity = 1
  Basis Set: AUG-CC-PVTZ
    Blend: AUG-CC-PVTZ
  Basis Set: (AUG-CC-PVTZ AUX)
    Blend: AUG-CC-PVTZ-JKFIT
  @DF-RHF Final Energy:   -76.06008531025094
    Total Energy =                        -76.0600853102509404
  //            Monomer B HF           //
    Molecular point group: c1

    Geometry (in Angstrom), charge = 0, multiplicity = 1:

       Center              X                  Y                   Z               Mass
    ------------   -----------------  -----------------  -----------------  -----------------
      Gh(O)           1.307921411776     0.087514718469     0.000040859727    15.994914619570
      Gh(H)           1.672351411776    -0.798325281531     0.000080859727     1.007825032230
      Gh(H)           0.349481411776    -0.057605281531    -0.000289140273     1.007825032230
         N           -1.280658588224    -0.045795281531    -0.000049140273    14.003074004430
         H           -1.751968588224    -0.400145281531     0.821880859727     1.007825032230
         H           -1.471858588224     0.947654718469    -0.025929140273     1.007825032230
         H           -1.761748588224    -0.444205281531    -0.795709140273     1.007825032230

  Charge       = 0
  Multiplicity = 1
  Basis Set: AUG-CC-PVTZ
    Blend: AUG-CC-PVTZ
  Basis Set: (AUG-CC-PVTZ AUX)
    Blend: AUG-CC-PVTZ-JKFIT

    Orbital Energies [Eh]
    ---------------------

    Doubly Occupied:

       1A    -15.541973     2A     -1.143806     3A     -0.628329
       4A     -0.627697     5A     -0.431304

  @DF-RHF Final Energy:   -56.22033449068504

   => Energetics <=

    Nuclear Repulsion Energy =             11.9657023473957072
    One-Electron Energy =                 -99.6258544396848436
    Two-Electron Energy =                  31.4398176016040978
    Total Energy =                        -56.2203344906850404

  Dipole Moment: [D]
     X:    -1.6112      Y:     0.3372      Z:     0.0006     Total:     1.6461

    SAPT Results
  --------------------------------------------------------------------------------------------------------
    Electrostatics                -35.51346895 [mEh]     -22.28503822 [kcal/mol]     -93.24059989 [kJ/mol]
      Elst10,r                    -35.47808026 [mEh]     -22.26283147 [kcal/mol]     -93.14768688 [kJ/mol]
      Elst12,r                     -0.03538870 [mEh]      -0.02220674 [kcal/mol]      -0.09291301 [kJ/mol]

    Exchange                       55.32341812 [mEh]      34.71596899 [kcal/mol]     145.25161427 [kJ/mol]
      Exch10                       51.85298675 [mEh]      32.53824043 [kcal/mol]     136.13999796 [kJ/mol]
      Exch10(S^2)                  50.23161391 [mEh]      31.52081361 [kcal/mol]     131.88308415 [kJ/mol]
      Exch11(S^2)                   1.07254217 [mEh]       0.67303037 [kcal/mol]       2.81595908 [kJ/mol]
      Exch12(S^2)                   2.39788920 [mEh]       1.50469819 [kcal/mol]       6.29565724 [kJ/mol]

    Induction                     -16.82924828 [mEh]     -10.56051273 [kcal/mol]     -44.18518528 [kJ/mol]
      Ind20,r                     -24.77601732 [mEh]     -15.54718559 [kcal/mol]     -65.04942452 [kJ/mol]
      Ind22                        -2.22391929 [mEh]      -1.39553043 [kcal/mol]      -5.83889930 [kJ/mol]
      Exch-Ind20,r                 15.68773539 [mEh]       9.84420258 [kcal/mol]      41.18814358 [kJ/mol]
      Exch-Ind22                    1.40814631 [mEh]       0.88362515 [kcal/mol]       3.69708763 [kJ/mol]
      delta HF,r (2)               -6.92519336 [mEh]      -4.34562444 [kcal/mol]     -18.18209266 [kJ/mol]

    Dispersion                    -10.23020982 [mEh]      -6.41955358 [kcal/mol]     -26.85941219 [kJ/mol]
      Disp20                      -12.16171157 [mEh]      -7.63158923 [kcal/mol]     -31.93056933 [kJ/mol]
      Disp21                        0.57197080 [mEh]       0.35891710 [kcal/mol]       1.50170913 [kJ/mol]
      Disp22 (SDQ)                  0.13236569 [mEh]       0.08306072 [kcal/mol]       0.34752606 [kJ/mol]
      Disp22 (T)                   -1.54045130 [mEh]      -0.96664778 [kcal/mol]      -4.04445433 [kJ/mol]
      Est. Disp22 (T)              -1.78824337 [mEh]      -1.12213966 [kcal/mol]      -4.69503233 [kJ/mol]
      Exch-Disp20                   3.01540863 [mEh]       1.89219748 [kcal/mol]       7.91695427 [kJ/mol]

  Total HF                          0.36143120 [mEh]       0.22680150 [kcal/mol]       0.94893747 [kJ/mol]
  Total SAPT0                      -8.78487174 [mEh]      -5.51259025 [kcal/mol]     -23.06467759 [kJ/mol]
  Total SAPT2                      -6.16560205 [mEh]      -3.86897370 [kcal/mol]     -16.18778596 [kJ/mol]
  Total SAPT2+                     -7.24950894 [mEh]      -4.54913554 [kcal/mol]     -19.03358309 [kJ/mol]

  Special recipe for scaled SAPT0 (see Manual):
    Electrostatics sSAPT0         -35.47808026 [mEh]     -22.26283147 [kcal/mol]     -93.14768688 [kJ/mol]
    Exchange sSAPT0                51.85298675 [mEh]      32.53824043 [kcal/mol]     136.13999796 [kJ/mol]
    Induction sSAPT0              -14.44481104 [mEh]      -9.06425577 [kcal/mol]     -37.92484616 [kJ/mol]
    Dispersion sSAPT0              -8.84478308 [mEh]      -5.55018518 [kcal/mol]     -23.22197478 [kJ/mol]
  Total sSAPT0                     -6.91468762 [mEh]      -4.33903199 [kcal/mol]     -18.15450985 [kJ/mol]
  --------------------------------------------------------------------------------------------------------

*** Psi4 exiting successfully. Buy a developer a beer!
