                               Psi4 1.4a2.dev224

  ==> Input File <==

--------------------------------------------------------------------------
#Generated by lconvert.py for sapt job

memory 50 GB

molecule  {
0 1
  O       1.584940    0.104690    0.000010
  H       1.949370   -0.781150    0.000050
  H       0.626500   -0.040430   -0.000320
--
0 1
  N      -1.614940   -0.024190    0.000010
  H      -2.086250   -0.378540    0.821950
  H      -1.806140    0.969250   -0.025870
  H      -2.096040   -0.422600   -0.795640
units angstrom
no_reorient
symmetry c1
}

set {
scf_type DF
basis aug-cc-pvtz
freeze_core True
guess SAD
}
energy('sapt2+')
--------------------------------------------------------------------------

  //              Dimer HF             //
    Molecular point group: c1
  Charge       = 0
  Multiplicity = 1
  Basis Set: AUG-CC-PVTZ
    Blend: AUG-CC-PVTZ
  Basis Set: (AUG-CC-PVTZ AUX)
    Blend: AUG-CC-PVTZ-JKFIT
  @DF-RHF Final Energy:  -132.28767922478079
    Total Energy =                       -132.2876792247807884
  //            Monomer A HF           //
    Molecular point group: c1
  Multiplicity = 1
  Basis Set: AUG-CC-PVTZ
    Blend: AUG-CC-PVTZ
  Basis Set: (AUG-CC-PVTZ AUX)
    Blend: AUG-CC-PVTZ-JKFIT
  @DF-RHF Final Energy:   -76.06003279792323
    Total Energy =                        -76.0600327979232418
  //            Monomer B HF           //
    Molecular point group: c1

    Geometry (in Angstrom), charge = 0, multiplicity = 1:

       Center              X                  Y                   Z               Mass
    ------------   -----------------  -----------------  -----------------  -----------------
      Gh(O)           1.604987534505     0.085362214278    -0.000003451740    15.994914619570
      Gh(H)           1.969417534505    -0.800477785722     0.000036548260     1.007825032230
      Gh(H)           0.646547534505    -0.059757785722    -0.000333451740     1.007825032230
         N           -1.594892465495    -0.043517785722    -0.000003451740    14.003074004430
         H           -2.066202465495    -0.397867785722     0.821936548260     1.007825032230
         H           -1.786092465495     0.949922214278    -0.025883451740     1.007825032230
         H           -2.075992465495    -0.441927785722    -0.795653451740     1.007825032230

  Charge       = 0
  Multiplicity = 1
  Basis Set: AUG-CC-PVTZ
    Blend: AUG-CC-PVTZ
  Basis Set: (AUG-CC-PVTZ AUX)
    Blend: AUG-CC-PVTZ-JKFIT

    Orbital Energies [Eh]
    ---------------------

    Doubly Occupied:

       1A    -15.542031     2A     -1.143817     3A     -0.628341
       4A     -0.627714     5A     -0.431304

  @DF-RHF Final Energy:   -56.22028932932185

   => Energetics <=

    Nuclear Repulsion Energy =             11.9657226537943568
    One-Electron Energy =                 -99.6256083436361592
    Two-Electron Energy =                  31.4395963605199533
    Total Energy =                        -56.2202893293218438

  Dipole Moment: [D]
     X:    -1.6110      Y:     0.3372      Z:     0.0006     Total:     1.6459

    SAPT Results
  --------------------------------------------------------------------------------------------------------
    Electrostatics                -11.44986016 [mEh]      -7.18489572 [kcal/mol]     -30.06160371 [kJ/mol]
      Elst10,r                    -11.64458171 [mEh]      -7.30708534 [kcal/mol]     -30.57284507 [kJ/mol]
      Elst12,r                      0.19472155 [mEh]       0.12218962 [kcal/mol]       0.51124135 [kJ/mol]

    Exchange                        7.94197800 [mEh]       4.98366643 [kcal/mol]      20.85166036 [kJ/mol]
      Exch10                        7.05687369 [mEh]       4.42825509 [kcal/mol]      18.52781931 [kJ/mol]
      Exch10(S^2)                   7.01804067 [mEh]       4.40388701 [kcal/mol]      18.42586324 [kJ/mol]
      Exch11(S^2)                   0.17270458 [mEh]       0.10837376 [kcal/mol]       0.45343581 [kJ/mol]
      Exch12(S^2)                   0.71239973 [mEh]       0.44703758 [kcal/mol]       1.87040524 [kJ/mol]

    Induction                      -2.93786873 [mEh]      -1.84354046 [kcal/mol]      -7.71337329 [kJ/mol]
      Ind20,r                      -3.59968281 [mEh]      -2.25883506 [kcal/mol]      -9.45096591 [kJ/mol]
      Ind22                        -0.34488872 [mEh]      -0.21642094 [kcal/mol]      -0.90550521 [kJ/mol]
      Exch-Ind20,r                  1.84122652 [mEh]       1.15538708 [kcal/mol]       4.83413956 [kJ/mol]
      Exch-Ind22                    0.17640950 [mEh]       0.11069864 [kcal/mol]       0.46316309 [kJ/mol]
      delta HF,r (2)               -1.01093322 [mEh]      -0.63437017 [kcal/mol]      -2.65420481 [kJ/mol]

    Dispersion                     -3.10409142 [mEh]      -1.94784677 [kcal/mol]      -8.14979090 [kJ/mol]
      Disp20                       -3.15241637 [mEh]      -1.97817114 [kcal/mol]      -8.27666805 [kJ/mol]
      Disp21                        0.00784159 [mEh]       0.00492067 [kcal/mol]       0.02058809 [kJ/mol]
      Disp22 (SDQ)                  0.02420515 [mEh]       0.01518896 [kcal/mol]       0.06355063 [kJ/mol]
      Disp22 (T)                   -0.44323145 [mEh]      -0.27813193 [kcal/mol]      -1.16370401 [kJ/mol]
      Est. Disp22 (T)              -0.52934429 [mEh]      -0.33216856 [kcal/mol]      -1.38979325 [kJ/mol]
      Exch-Disp20                   0.54562250 [mEh]       0.34238329 [kcal/mol]       1.43253169 [kJ/mol]

  Total HF                         -7.35709754 [mEh]      -4.61664840 [kcal/mol]     -19.31605692 [kJ/mol]
  Total SAPT0                      -9.96389140 [mEh]      -6.25243625 [kcal/mol]     -26.16019328 [kJ/mol]
  Total SAPT2                      -9.05254476 [mEh]      -5.68055760 [kcal/mol]     -23.76745300 [kJ/mol]
  Total SAPT2+                     -9.54984231 [mEh]      -5.99261652 [kcal/mol]     -25.07310754 [kJ/mol]

  Special recipe for scaled SAPT0 (see Manual):
    Electrostatics sSAPT0         -11.64458171 [mEh]      -7.30708534 [kcal/mol]     -30.57284507 [kJ/mol]
    Exchange sSAPT0                 7.05687369 [mEh]       4.42825509 [kcal/mol]      18.52781931 [kJ/mol]
    Induction sSAPT0               -2.73865583 [mEh]      -1.71853248 [kcal/mol]      -7.19033989 [kJ/mol]
    Dispersion sSAPT0              -2.59768636 [mEh]      -1.63007280 [kcal/mol]      -6.82022460 [kJ/mol]
  Total sSAPT0                     -9.92405021 [mEh]      -6.22743553 [kcal/mol]     -26.05559024 [kJ/mol]
  --------------------------------------------------------------------------------------------------------

*** Psi4 exiting successfully. Buy a developer a beer!
