                               Psi4 1.4a2.dev224

  ==> Input File <==

--------------------------------------------------------------------------
#Generated by lconvert.py for sapt job

memory 50 GB

molecule  {
0 1
  O       1.584940    0.104690    0.000010
  H       1.949370   -0.781150    0.000050
  H       0.626500   -0.040430   -0.000320
--
0 1
  N      -0.799870   -0.030090   -0.000110
  H      -1.271180   -0.384440    0.821820
  H      -0.991070    0.963350   -0.025990
  H      -1.280970   -0.428500   -0.795770
units angstrom
no_reorient
symmetry c1
}

set {
scf_type DF
basis aug-cc-pvtz
freeze_core True
guess SAD
}
energy('sapt2+')
--------------------------------------------------------------------------

  //              Dimer HF             //
    Molecular point group: c1
  Charge       = 0
  Multiplicity = 1
  Basis Set: AUG-CC-PVTZ
    Blend: AUG-CC-PVTZ
  Basis Set: (AUG-CC-PVTZ AUX)
    Blend: AUG-CC-PVTZ-JKFIT
  @DF-RHF Final Energy:  -132.26535335832637
    Total Energy =                       -132.2653533583263652
  //            Monomer A HF           //
    Molecular point group: c1
  Multiplicity = 1
  Basis Set: AUG-CC-PVTZ
    Blend: AUG-CC-PVTZ
  Basis Set: (AUG-CC-PVTZ AUX)
    Blend: AUG-CC-PVTZ-JKFIT
  @DF-RHF Final Energy:   -76.06011133720796
    Total Energy =                        -76.0601113372079709
  //            Monomer B HF           //
    Molecular point group: c1

    Geometry (in Angstrom), charge = 0, multiplicity = 1:

       Center              X                  Y                   Z               Mass
    ------------   -----------------  -----------------  -----------------  -----------------
      Gh(O)           1.208898134535     0.088229363676     0.000055438453    15.994914619570
      Gh(H)           1.573328134535    -0.797610636324     0.000095438453     1.007825032230
      Gh(H)           0.250458134535    -0.056890636324    -0.000274561547     1.007825032230
         N           -1.175911865465    -0.046550636324    -0.000064561547    14.003074004430
         H           -1.647221865465    -0.400900636324     0.821865438453     1.007825032230
         H           -1.367111865465     0.946889363676    -0.025944561547     1.007825032230
         H           -1.657011865465    -0.444960636324    -0.795724561547     1.007825032230

  Charge       = 0
  Multiplicity = 1
  Basis Set: AUG-CC-PVTZ
    Blend: AUG-CC-PVTZ
  Basis Set: (AUG-CC-PVTZ AUX)
    Blend: AUG-CC-PVTZ-JKFIT

    Orbital Energies [Eh]
    ---------------------

    Doubly Occupied:

       1A    -15.541965     2A     -1.143802     3A     -0.628325
       4A     -0.627696     5A     -0.431302

  @DF-RHF Final Energy:   -56.22034299487967

   => Energetics <=

    Nuclear Repulsion Energy =             11.9657236911848237
    One-Electron Energy =                 -99.6259511848621599
    Two-Electron Energy =                  31.4398844987976709
    Total Energy =                        -56.2203429948796725

  Dipole Moment: [D]
     X:    -1.6113      Y:     0.3372      Z:     0.0006     Total:     1.6462

    SAPT Results
  --------------------------------------------------------------------------------------------------------
    Electrostatics                -54.37259510 [mEh]     -34.11931854 [kcal/mol]    -142.75522878 [kJ/mol]
      Elst10,r                    -54.23952872 [mEh]     -34.03581813 [kcal/mol]    -142.40586304 [kJ/mol]
      Elst12,r                     -0.13306638 [mEh]      -0.08350042 [kcal/mol]      -0.34936574 [kJ/mol]

    Exchange                      103.96544669 [mEh]      65.23930274 [kcal/mol]     272.96124267 [kJ/mol]
      Exch10                       99.22112774 [mEh]      62.26219766 [kcal/mol]     260.50503499 [kJ/mol]
      Exch10(S^2)                  93.85136130 [mEh]      58.89261834 [kcal/mol]     246.40671514 [kJ/mol]
      Exch11(S^2)                   1.73018410 [mEh]       1.08570691 [kcal/mol]       4.54259773 [kJ/mol]
      Exch12(S^2)                   3.01413485 [mEh]       1.89139817 [kcal/mol]       7.91360995 [kJ/mol]

    Induction                     -31.45184068 [mEh]     -19.73632799 [kcal/mol]     -82.57679633 [kJ/mol]
      Ind20,r                     -50.21208913 [mEh]     -31.50856162 [kcal/mol]    -131.83182184 [kJ/mol]
      Ind22                        -4.25811223 [mEh]      -2.67200576 [kcal/mol]     -11.17967212 [kJ/mol]
      Exch-Ind20,r                 31.68415830 [mEh]      19.88210950 [kcal/mol]      83.18674615 [kJ/mol]
      Exch-Ind22                    2.68689681 [mEh]       1.68605320 [kcal/mol]       7.05444659 [kJ/mol]
      delta HF,r (2)              -11.35269443 [mEh]      -7.12392331 [kcal/mol]     -29.80649512 [kJ/mol]

    Dispersion                    -15.61795353 [mEh]      -9.80041380 [kcal/mol]     -41.00493135 [kJ/mol]
      Disp20                      -19.40932356 [mEh]     -12.17953441 [kcal/mol]     -50.95917198 [kJ/mol]
      Disp21                        1.35361592 [mEh]       0.84940682 [kcal/mol]       3.55391812 [kJ/mol]
      Disp22 (SDQ)                  0.18303260 [mEh]       0.11485469 [kcal/mol]       0.48055203 [kJ/mol]
      Disp22 (T)                   -2.40175632 [mEh]      -1.50712485 [kcal/mol]      -6.30581036 [kJ/mol]
      Est. Disp22 (T)              -2.70489802 [mEh]      -1.69734914 [kcal/mol]      -7.10170878 [kJ/mol]
      Exch-Disp20                   4.95961952 [mEh]       3.11220824 [kcal/mol]      13.02147926 [kJ/mol]

  Total HF                         15.10097376 [mEh]       9.47600410 [kcal/mol]      39.64760115 [kJ/mol]
  Total SAPT0                       0.65126973 [mEh]       0.40867792 [kcal/mol]       1.70990843 [kJ/mol]
  Total SAPT2                       3.69130687 [mEh]       2.31633003 [kcal/mol]       9.69152485 [kJ/mol]
  Total SAPT2+                      2.52305737 [mEh]       1.58324240 [kcal/mol]       6.62428622 [kJ/mol]

  Special recipe for scaled SAPT0 (see Manual):
    Electrostatics sSAPT0         -54.23952872 [mEh]     -34.03581813 [kcal/mol]    -142.40586304 [kJ/mol]
    Exchange sSAPT0                99.22112774 [mEh]      62.26219766 [kcal/mol]     260.50503499 [kJ/mol]
    Induction sSAPT0              -24.12503512 [mEh]     -15.13868809 [kcal/mol]     -63.34027099 [kJ/mol]
    Dispersion sSAPT0             -13.54876367 [mEh]      -8.50197756 [kcal/mol]     -35.57227411 [kJ/mol]
  Total sSAPT0                      7.30780023 [mEh]       4.58571388 [kcal/mol]      19.18662685 [kJ/mol]
  --------------------------------------------------------------------------------------------------------

*** Psi4 exiting successfully. Buy a developer a beer!
