                               Psi4 1.4a2.dev224

  ==> Input File <==

--------------------------------------------------------------------------
#Generated by lconvert.py for sapt job

memory 50 GB

molecule  {
0 1
  O       1.584940    0.104690    0.000010
  H       1.949370   -0.781150    0.000050
  H       0.626500   -0.040430   -0.000320
--
0 1
  N      -0.799870   -0.030090   -0.000110
  H      -1.271180   -0.384440    0.821820
  H      -0.991070    0.963350   -0.025990
  H      -1.280970   -0.428500   -0.795770
units angstrom
no_reorient
symmetry c1
}

set {
scf_type DF
basis aug-cc-pvtz
freeze_core True
guess SAD
}
energy('sapt2+')
--------------------------------------------------------------------------

  //              Dimer HF             //
    Molecular point group: c1
  Charge       = 0
  Multiplicity = 1
  Basis Set: AUG-CC-PVTZ
    Blend: AUG-CC-PVTZ
  Basis Set: (AUG-CC-PVTZ AUX)
    Blend: AUG-CC-PVTZ-JKFIT
  @DF-RHF Final Energy:  -132.26535335832637
    Total Energy =                       -132.2653533583263652
  //            Monomer A HF           //
    Molecular point group: c1
  Basis Set: AUG-CC-PVTZ
    Blend: AUG-CC-PVTZ
  Basis Set: (AUG-CC-PVTZ AUX)
    Blend: AUG-CC-PVTZ-JKFIT
  @DF-RHF Final Energy:   -76.06011133720796
    Total Energy =                        -76.0601113372079709
  //            Monomer B HF           //
  Basis Set: AUG-CC-PVTZ
    Blend: AUG-CC-PVTZ
  Basis Set: (AUG-CC-PVTZ AUX)
    Blend: AUG-CC-PVTZ-JKFIT
  @DF-RHF Final Energy:   -56.22034299487967
    Total Energy =                        -56.2203429948796725
*** Psi4 exiting successfully. Buy a developer a beer!
                               Psi4 1.4a2.dev224
  //              Dimer HF             //
  Basis Set: AUG-CC-PVTZ
    Blend: AUG-CC-PVTZ
  Basis Set: (AUG-CC-PVTZ AUX)
    Blend: AUG-CC-PVTZ-JKFIT
  @DF-RHF Final Energy:  -132.28005836974032
    Total Energy =                       -132.2800583697403454
  @DF-RHF Final Energy:   -76.06008531025094
    Total Energy =                        -76.0600853102509404
  @DF-RHF Final Energy:   -56.22033449068504
    Total Energy =                        -56.2203344906850404
*** Psi4 exiting successfully. Buy a developer a beer!
                               Psi4 1.4a2.dev224
  @DF-RHF Final Energy:  -132.28594464058122
    Total Energy =                       -132.2859446405811923
  @DF-RHF Final Energy:   -76.06006306795638
    Total Energy =                        -76.0600630679563778
  @DF-RHF Final Energy:   -56.22031717534762
    Total Energy =                        -56.2203171753476170
                               Psi4 1.4a2.dev224
  @DF-RHF Final Energy:  -132.28716073713363
    Total Energy =                       -132.2871607371336324
  @DF-RHF Final Energy:   -76.06005328739988
    Total Energy =                        -76.0600532873998674
  @DF-RHF Final Energy:   -56.22030876099596
    Total Energy =                        -56.2203087609959553
                               Psi4 1.4a2.dev224
  @DF-RHF Final Energy:  -132.28771347085043
    Total Energy =                       -132.2877134708504627
  @DF-RHF Final Energy:   -76.06004491618025
    Total Energy =                        -76.0600449161802459
  @DF-RHF Final Energy:   -56.22030089665246
    Total Energy =                        -56.2203008966524607
                               Psi4 1.4a2.dev224
  @DF-RHF Final Energy:  -132.28783334504226
    Total Energy =                       -132.2878333450422588
  @DF-RHF Final Energy:   -76.06003816295059
    Total Energy =                        -76.0600381629505762
  @DF-RHF Final Energy:   -56.22029419530399
    Total Energy =                        -56.2202941953039854
                               Psi4 1.4a2.dev224
  @DF-RHF Final Energy:  -132.28767922478079
    Total Energy =                       -132.2876792247807884
  @DF-RHF Final Energy:   -76.06003279792323
    Total Energy =                        -76.0600327979232418
  @DF-RHF Final Energy:   -56.22028932932185
    Total Energy =                        -56.2202893293218438
                               Psi4 1.4a2.dev224
  @DF-RHF Final Energy:  -132.28601520314123
    Total Energy =                       -132.2860152031412326
  @DF-RHF Final Energy:   -76.06001707053136
    Total Energy =                        -76.0600170705313587
  @DF-RHF Final Energy:   -56.22028333093245
    Total Energy =                        -56.2202833309324461
                               Psi4 1.4a2.dev224
  @DF-RHF Final Energy:  -132.28364199496875
    Total Energy =                       -132.2836419949687468
  @DF-RHF Final Energy:   -76.06000315254524
    Total Energy =                        -76.0600031525452351
  //            Monomer B HF           //
  Basis Set: AUG-CC-PVTZ
    Blend: AUG-CC-PVTZ
  Basis Set: (AUG-CC-PVTZ AUX)
    Blend: AUG-CC-PVTZ-JKFIT
  @DF-RHF Final Energy:   -56.22027817104397
    Total Energy =                        -56.2202781710439652
*** Psi4 exiting successfully. Buy a developer a beer!
                               Psi4 1.4a2.dev224
  //              Dimer HF             //
  Basis Set: AUG-CC-PVTZ
    Blend: AUG-CC-PVTZ
  Basis Set: (AUG-CC-PVTZ AUX)
    Blend: AUG-CC-PVTZ-JKFIT
  @DF-RHF Final Energy:  -132.28227473638768
    Total Energy =                       -132.2822747363876772
  //            Monomer A HF           //
  Multiplicity = 1
  Basis Set: AUG-CC-PVTZ
    Blend: AUG-CC-PVTZ
  Basis Set: (AUG-CC-PVTZ AUX)
    Blend: AUG-CC-PVTZ-JKFIT
  @DF-RHF Final Energy:   -76.05999961144650
    Total Energy =                        -76.0599996114465000
  //            Monomer B HF           //
    Molecular point group: c1

    Geometry (in Angstrom), charge = 0, multiplicity = 1:

       Center              X                  Y                   Z               Mass
    ------------   -----------------  -----------------  -----------------  -----------------
      Gh(O)           2.397170618731     0.079623055907    -0.000124365831    15.994914619570
      Gh(H)           2.761600618731    -0.806216944093    -0.000084365831     1.007825032230
      Gh(H)           1.438730618731    -0.065496944093    -0.000454365831     1.007825032230
         N           -2.432859381269    -0.037446944093     0.000125634169    14.003074004430
         H           -2.904169381269    -0.391796944093     0.822055634169     1.007825032230
         H           -2.624049381269     0.955993055907    -0.025754365831     1.007825032230
         H           -2.913949381269    -0.435856944093    -0.795534365831     1.007825032230

  Charge       = 0
  Multiplicity = 1
  Basis Set: AUG-CC-PVTZ
    Blend: AUG-CC-PVTZ
  Basis Set: (AUG-CC-PVTZ AUX)
    Blend: AUG-CC-PVTZ-JKFIT

    Orbital Energies [Eh]
    ---------------------

    Doubly Occupied:

       1A    -15.542039     2A     -1.143821     3A     -0.628347
       4A     -0.627719     5A     -0.431303

  @DF-RHF Final Energy:   -56.22027339431158

   => Energetics <=

    Nuclear Repulsion Energy =             11.9657474027406003
    One-Electron Energy =                 -99.6255802440655884
    Two-Electron Energy =                  31.4395594470134014
    Total Energy =                        -56.2202733943115831

  Dipole Moment: [D]
     X:    -1.6108      Y:     0.3371      Z:     0.0006     Total:     1.6457

    SAPT Results
  --------------------------------------------------------------------------------------------------------
    Electrostatics                 -1.83411714 [mEh]      -1.15092588 [kcal/mol]      -4.81547389 [kJ/mol]
      Elst10,r                     -1.94905448 [mEh]      -1.22305015 [kcal/mol]      -5.11724184 [kJ/mol]
      Elst12,r                      0.11493734 [mEh]       0.07212427 [kcal/mol]       0.30176795 [kJ/mol]

    Exchange                        0.03809915 [mEh]       0.02390757 [kcal/mol]       0.10002929 [kJ/mol]
      Exch10                        0.02948378 [mEh]       0.01850135 [kcal/mol]       0.07740965 [kJ/mol]
      Exch10(S^2)                   0.02948260 [mEh]       0.01850061 [kcal/mol]       0.07740656 [kJ/mol]
      Exch11(S^2)                   0.00065104 [mEh]       0.00040853 [kcal/mol]       0.00170930 [kJ/mol]
      Exch12(S^2)                   0.00796433 [mEh]       0.00499769 [kcal/mol]       0.02091035 [kJ/mol]

    Induction                      -0.08613699 [mEh]      -0.05405178 [kcal/mol]      -0.22615265 [kJ/mol]
      Ind20,r                      -0.08298216 [mEh]      -0.05207209 [kcal/mol]      -0.21786964 [kJ/mol]
      Ind22                        -0.00430171 [mEh]      -0.00269936 [kcal/mol]      -0.01129413 [kJ/mol]
      Exch-Ind20,r                  0.00626245 [mEh]       0.00392975 [kcal/mol]       0.01644207 [kJ/mol]
      Exch-Ind22                    0.00032464 [mEh]       0.00020371 [kcal/mol]       0.00085234 [kJ/mol]
      delta HF,r (2)               -0.00544022 [mEh]      -0.00341379 [kcal/mol]      -0.01428329 [kJ/mol]

    Dispersion                     -0.18761602 [mEh]      -0.11773083 [kcal/mol]      -0.49258580 [kJ/mol]
      Disp20                       -0.16218666 [mEh]      -0.10177367 [kcal/mol]      -0.42582103 [kJ/mol]
      Disp21                        0.00138868 [mEh]       0.00087141 [kcal/mol]       0.00364598 [kJ/mol]
      Disp22 (SDQ)                  0.00023905 [mEh]       0.00015001 [kcal/mol]       0.00062762 [kJ/mol]
      Disp22 (T)                   -0.02757557 [mEh]      -0.01730393 [kcal/mol]      -0.07239966 [kJ/mol]
      Est. Disp22 (T)              -0.03047438 [mEh]      -0.01912296 [kcal/mol]      -0.08001048 [kJ/mol]
      Exch-Disp20                   0.00341730 [mEh]       0.00214439 [kcal/mol]       0.00897212 [kJ/mol]

  Total HF                         -2.00173063 [mEh]      -1.25610493 [kcal/mol]      -5.25554304 [kJ/mol]
  Total SAPT0                      -2.16050000 [mEh]      -1.35573422 [kcal/mol]      -5.67239196 [kJ/mol]
  Total SAPT2                      -2.04092436 [mEh]      -1.28069937 [kcal/mol]      -5.35844616 [kJ/mol]
  Total SAPT2+                     -2.06977101 [mEh]      -1.29880092 [kcal/mol]      -5.43418304 [kJ/mol]

  Special recipe for scaled SAPT0 (see Manual):
    Electrostatics sSAPT0          -1.94905448 [mEh]      -1.22305015 [kcal/mol]      -5.11724184 [kJ/mol]
    Exchange sSAPT0                 0.02948378 [mEh]       0.01850135 [kcal/mol]       0.07740965 [kJ/mol]
    Induction sSAPT0               -0.08215918 [mEh]      -0.05155566 [kcal/mol]      -0.21570889 [kJ/mol]
    Dispersion sSAPT0              -0.15876896 [mEh]      -0.09962902 [kcal/mol]      -0.41684784 [kJ/mol]
  Total sSAPT0                     -2.16049884 [mEh]      -1.35573349 [kcal/mol]      -5.67238892 [kJ/mol]
  --------------------------------------------------------------------------------------------------------

*** Psi4 exiting successfully. Buy a developer a beer!
