                               Psi4 1.4a2.dev224

  ==> Input File <==

--------------------------------------------------------------------------
#Generated by lconvert.py for sapt job

memory 50 GB

molecule  {
0 1
  C      -2.024830    0.000030   -0.000010
  H      -2.390900   -0.618790   -0.813960
  H      -2.391450   -0.395610    0.942610
  H      -2.391760    1.014030   -0.128930
  H      -0.938770    0.000470    0.000290
--
0 1
  N       1.623690    0.000120    0.000020
  H       2.016730    0.376340   -0.852800
  H       2.016780    0.550100    0.752570
  H       2.015350   -0.927160    0.100380
units angstrom
no_reorient
symmetry c1
}

set {
scf_type DF
basis aug-cc-pvtz
freeze_core True
guess SAD
}
energy('sapt2+')
--------------------------------------------------------------------------

  //              Dimer HF             //
    Molecular point group: c1
  Charge       = 0
  Multiplicity = 1
  Basis Set: AUG-CC-PVTZ
    Blend: AUG-CC-PVTZ
  Basis Set: (AUG-CC-PVTZ AUX)
    Blend: AUG-CC-PVTZ-JKFIT
  @DF-RHF Final Energy:   -96.43309865218586
    Total Energy =                        -96.4330986521858620
  //            Monomer A HF           //
    Molecular point group: c1
  Multiplicity = 1
  Basis Set: AUG-CC-PVTZ
    Blend: AUG-CC-PVTZ
  Basis Set: (AUG-CC-PVTZ AUX)
    Blend: AUG-CC-PVTZ-JKFIT
  @DF-RHF Final Energy:   -40.21366952692931
    Total Energy =                        -40.2136695269293085
  //            Monomer B HF           //
    Molecular point group: c1

    Geometry (in Angstrom), charge = 0, multiplicity = 1:

       Center              X                  Y                   Z               Mass
    ------------   -----------------  -----------------  -----------------  -----------------
      Gh(C)          -1.914675229572    -0.000012819403    -0.000019719734    12.000000000000
      Gh(H)          -2.280745229572    -0.618832819403    -0.813969719734     1.007825032230
      Gh(H)          -2.281295229572    -0.395652819403     0.942600280266     1.007825032230
      Gh(H)          -2.281605229572     1.013987180597    -0.128939719734     1.007825032230
      Gh(H)          -0.828615229572     0.000427180597     0.000280280266     1.007825032230
         N            1.733844770428     0.000077180597     0.000010280266    14.003074004430
         H            2.126884770428     0.376297180597    -0.852809719734     1.007825032230
         H            2.126934770428     0.550057180597     0.752560280266     1.007825032230
         H            2.125504770428    -0.927202819403     0.100370280266     1.007825032230

  Charge       = 0
  Multiplicity = 1
  Basis Set: AUG-CC-PVTZ
    Blend: AUG-CC-PVTZ
  Basis Set: (AUG-CC-PVTZ AUX)
    Blend: AUG-CC-PVTZ-JKFIT

    Orbital Energies [Eh]
    ---------------------

    Doubly Occupied:

       1A    -15.542136     2A     -1.144253     3A     -0.627768
       4A     -0.627745     5A     -0.431942

  @DF-RHF Final Energy:   -56.22025590994126

   => Energetics <=

    Nuclear Repulsion Energy =             11.9684648595122347
    One-Electron Energy =                 -99.6297525854890864
    Two-Electron Energy =                  31.4410318160355864
    Total Energy =                        -56.2202559099412582

  Dipole Moment: [D]
     X:     1.6566      Y:    -0.0016      Z:     0.0001     Total:     1.6566

    SAPT Results
  --------------------------------------------------------------------------------------------------------
    Electrostatics                 -2.69889306 [mEh]      -1.69358096 [kcal/mol]      -7.08594274 [kJ/mol]
      Elst10,r                     -2.49202138 [mEh]      -1.56376702 [kcal/mol]      -6.54280123 [kJ/mol]
      Elst12,r                     -0.20687168 [mEh]      -0.12981394 [kcal/mol]      -0.54314152 [kJ/mol]

    Exchange                        4.71628611 [mEh]       2.95951422 [kcal/mol]      12.38260748 [kJ/mol]
      Exch10                        4.34383627 [mEh]       2.72579841 [kcal/mol]      11.40474054 [kJ/mol]
      Exch10(S^2)                   4.32643468 [mEh]       2.71487875 [kcal/mol]      11.35905267 [kJ/mol]
      Exch11(S^2)                   0.08381042 [mEh]       0.05259183 [kcal/mol]       0.22004423 [kJ/mol]
      Exch12(S^2)                   0.28863943 [mEh]       0.18112398 [kcal/mol]       0.75782271 [kJ/mol]

    Induction                      -1.06138227 [mEh]      -0.66602743 [kcal/mol]      -2.78665878 [kJ/mol]
      Ind20,r                      -1.21927468 [mEh]      -0.76510642 [kcal/mol]      -3.20120524 [kJ/mol]
      Ind22                        -0.07157511 [mEh]      -0.04491406 [kcal/mol]      -0.18792043 [kJ/mol]
      Exch-Ind20,r                  0.60002087 [mEh]       0.37651878 [kcal/mol]       1.57535457 [kJ/mol]
      Exch-Ind22                    0.03522304 [mEh]       0.02210279 [kcal/mol]       0.09247808 [kJ/mol]
      delta HF,r (2)               -0.40577639 [mEh]      -0.25462853 [kcal/mol]      -1.06536576 [kJ/mol]

    Dispersion                     -2.29349980 [mEh]      -1.43919286 [kcal/mol]      -6.02158291 [kJ/mol]
      Disp20                       -2.37874410 [mEh]      -1.49268446 [kcal/mol]      -6.24539177 [kJ/mol]
      Disp21                       -0.07013517 [mEh]      -0.04401048 [kcal/mol]      -0.18413986 [kJ/mol]
      Disp22 (SDQ)                  0.10921485 [mEh]       0.06853335 [kcal/mol]       0.28674355 [kJ/mol]
      Disp22 (T)                   -0.28538781 [mEh]      -0.17908356 [kcal/mol]      -0.74928560 [kJ/mol]
      Est. Disp22 (T)              -0.34030049 [mEh]      -0.21354178 [kcal/mol]      -0.89345882 [kJ/mol]
      Exch-Disp20                   0.38646511 [mEh]       0.24251052 [kcal/mol]       1.01466400 [kJ/mol]

  Total HF                          0.82678468 [mEh]       0.51881522 [kcal/mol]       2.17072289 [kJ/mol]
  Total SAPT0                      -1.16549431 [mEh]      -0.73135872 [kcal/mol]      -3.06000488 [kJ/mol]
  Total SAPT2                      -1.03626821 [mEh]      -0.65026812 [kcal/mol]      -2.72072181 [kJ/mol]
  Total SAPT2+                     -1.33748902 [mEh]      -0.83928703 [kcal/mol]      -3.51157695 [kJ/mol]

  Special recipe for scaled SAPT0 (see Manual):
    Electrostatics sSAPT0          -2.49202138 [mEh]      -1.56376702 [kcal/mol]      -6.54280123 [kJ/mol]
    Exchange sSAPT0                 4.34383627 [mEh]       2.72579841 [kcal/mol]      11.40474054 [kJ/mol]
    Induction sSAPT0               -1.01776091 [mEh]      -0.63865461 [kcal/mol]      -2.67213091 [kJ/mol]
    Dispersion sSAPT0              -1.98759694 [mEh]      -1.24723591 [kcal/mol]      -5.21843505 [kJ/mol]
  Total sSAPT0                     -1.15354297 [mEh]      -0.72385914 [kcal/mol]      -3.02862664 [kJ/mol]
  --------------------------------------------------------------------------------------------------------

*** Psi4 exiting successfully. Buy a developer a beer!
