                               Psi4 1.4a2.dev224

  ==> Input File <==

--------------------------------------------------------------------------
#Generated by lconvert.py for sapt job

memory 50 GB

molecule  {
0 1
  C      -2.024830    0.000030   -0.000010
  H      -2.390900   -0.618790   -0.813960
  H      -2.391450   -0.395610    0.942610
  H      -2.391760    1.014030   -0.128930
  H      -0.938770    0.000470    0.000290
--
0 1
  N       1.054250    0.000200    0.000080
  H       1.447290    0.376410   -0.852740
  H       1.447350    0.550170    0.752630
  H       1.445910   -0.927080    0.100440
units angstrom
no_reorient
symmetry c1
}

set {
scf_type DF
basis aug-cc-pvtz
freeze_core True
guess SAD
}
energy('sapt2+')
--------------------------------------------------------------------------

  //              Dimer HF             //
    Molecular point group: c1
  Charge       = 0
  Multiplicity = 1
  Basis Set: AUG-CC-PVTZ
    Blend: AUG-CC-PVTZ
  Basis Set: (AUG-CC-PVTZ AUX)
    Blend: AUG-CC-PVTZ-JKFIT
  @DF-RHF Final Energy:   -96.42423144934250
    Total Energy =                        -96.4242314493424999
  //            Monomer A HF           //
    Molecular point group: c1
  Basis Set: AUG-CC-PVTZ
    Blend: AUG-CC-PVTZ
  Basis Set: (AUG-CC-PVTZ AUX)
    Blend: AUG-CC-PVTZ-JKFIT
  @DF-RHF Final Energy:   -40.21367778371641
    Total Energy =                        -40.2136777837164061
  //            Monomer B HF           //
  Basis Set: AUG-CC-PVTZ
    Blend: AUG-CC-PVTZ
  Basis Set: (AUG-CC-PVTZ AUX)
    Blend: AUG-CC-PVTZ-JKFIT
  @DF-RHF Final Energy:   -56.22028256376706
    Total Energy =                        -56.2202825637670571
*** Psi4 exiting successfully. Buy a developer a beer!
                               Psi4 1.4a2.dev224
  //              Dimer HF             //
  Basis Set: AUG-CC-PVTZ
    Blend: AUG-CC-PVTZ
  Basis Set: (AUG-CC-PVTZ AUX)
    Blend: AUG-CC-PVTZ-JKFIT
  @DF-RHF Final Energy:   -96.43062173530060
    Total Energy =                        -96.4306217353006048
  @DF-RHF Final Energy:   -40.21367364922758
    Total Energy =                        -40.2136736492275801
  @DF-RHF Final Energy:   -56.22026260308181
    Total Energy =                        -56.2202626030818067
*** Psi4 exiting successfully. Buy a developer a beer!
                               Psi4 1.4a2.dev224
  @DF-RHF Final Energy:   -96.43309865218586
    Total Energy =                        -96.4330986521858620
  @DF-RHF Final Energy:   -40.21366952692931
    Total Energy =                        -40.2136695269293085
  @DF-RHF Final Energy:   -56.22025590994126
    Total Energy =                        -56.2202559099412582
                               Psi4 1.4a2.dev224
  @DF-RHF Final Energy:   -96.43365271151460
    Total Energy =                        -96.4336527115145969
  @DF-RHF Final Energy:   -40.21366753388879
    Total Energy =                        -40.2136675338887954
  @DF-RHF Final Energy:   -56.22025494630502
    Total Energy =                        -56.2202549463050190
                               Psi4 1.4a2.dev224
  @DF-RHF Final Energy:   -96.43396626282336
    Total Energy =                        -96.4339662628233611
  @DF-RHF Final Energy:   -40.21366561067159
    Total Energy =                        -40.2136656106715975
  @DF-RHF Final Energy:   -56.22025428084939
    Total Energy =                        -56.2202542808493888
                               Psi4 1.4a2.dev224
  @DF-RHF Final Energy:   -96.43413099973458
    Total Energy =                        -96.4341309997345775
  @DF-RHF Final Energy:   -40.21366380503984
    Total Energy =                        -40.2136638050398432
  @DF-RHF Final Energy:   -56.22025302547051
    Total Energy =                        -56.2202530254705053
                               Psi4 1.4a2.dev224
  @DF-RHF Final Energy:   -96.43420563405762
    Total Energy =                        -96.4342056340576192
  @DF-RHF Final Energy:   -40.21366216771379
    Total Energy =                        -40.2136621677137924
  @DF-RHF Final Energy:   -56.22025097734184
    Total Energy =                        -56.2202509773418413
                               Psi4 1.4a2.dev224
  @DF-RHF Final Energy:   -96.43417283790353
    Total Energy =                        -96.4341728379035317
  @DF-RHF Final Energy:   -40.21365782966483
    Total Energy =                        -40.2136578296648324
  @DF-RHF Final Energy:   -56.22024587957622
    Total Energy =                        -56.2202458795762183
                               Psi4 1.4a2.dev224
  @DF-RHF Final Energy:   -96.43402088755423
    Total Energy =                        -96.4340208875542260
  @DF-RHF Final Energy:   -40.21365579501295
    Total Energy =                        -40.2136557950129472
  //            Monomer B HF           //
  Basis Set: AUG-CC-PVTZ
    Blend: AUG-CC-PVTZ
  Basis Set: (AUG-CC-PVTZ AUX)
    Blend: AUG-CC-PVTZ-JKFIT
  @DF-RHF Final Energy:   -56.22024090284174
    Total Energy =                        -56.2202409028417378
*** Psi4 exiting successfully. Buy a developer a beer!
                               Psi4 1.4a2.dev224
  //              Dimer HF             //
  Basis Set: AUG-CC-PVTZ
    Blend: AUG-CC-PVTZ
  Basis Set: (AUG-CC-PVTZ AUX)
    Blend: AUG-CC-PVTZ-JKFIT
  @DF-RHF Final Energy:   -96.43394584571823
    Total Energy =                        -96.4339458457182275
  //            Monomer A HF           //
  Multiplicity = 1
  Basis Set: AUG-CC-PVTZ
    Blend: AUG-CC-PVTZ
  Basis Set: (AUG-CC-PVTZ AUX)
    Blend: AUG-CC-PVTZ-JKFIT
  @DF-RHF Final Energy:   -40.21365465567313
    Total Energy =                        -40.2136546556731247
  //            Monomer B HF           //
    Molecular point group: c1

    Geometry (in Angstrom), charge = 0, multiplicity = 1:

       Center              X                  Y                   Z               Mass
    ------------   -----------------  -----------------  -----------------  -----------------
      Gh(C)          -3.381124233329     0.000183510525     0.000129950545    12.000000000000
      Gh(H)          -3.747194233329    -0.618636489475    -0.813820049455     1.007825032230
      Gh(H)          -3.747744233329    -0.395456489475     0.942749950545     1.007825032230
      Gh(H)          -3.748054233329     1.014183510525    -0.128790049455     1.007825032230
      Gh(H)          -2.295064233329     0.000623510525     0.000429950545     1.007825032230
         N            3.114575766671    -0.000106489475    -0.000130049455    14.003074004430
         H            3.507615766671     0.376103510525    -0.852960049455     1.007825032230
         H            3.507665766671     0.549863510525     0.752419950545     1.007825032230
         H            3.506235766671    -0.927386489475     0.100229950545     1.007825032230

  Charge       = 0
  Multiplicity = 1
  Basis Set: AUG-CC-PVTZ
    Blend: AUG-CC-PVTZ
  Basis Set: (AUG-CC-PVTZ AUX)
    Blend: AUG-CC-PVTZ-JKFIT

    Orbital Energies [Eh]
    ---------------------

    Doubly Occupied:

       1A    -15.542140     2A     -1.144253     3A     -0.627767
       4A     -0.627748     5A     -0.431940

  @DF-RHF Final Energy:   -56.22023456101831

   => Energetics <=

    Nuclear Repulsion Energy =             11.9684677638412111
    One-Electron Energy =                 -99.6297082620018415
    Two-Electron Energy =                  31.4410059371423145
    Total Energy =                        -56.2202345610183087

  Dipole Moment: [D]
     X:     1.6546      Y:    -0.0016      Z:     0.0001     Total:     1.6546

    SAPT Results
  --------------------------------------------------------------------------------------------------------
    Electrostatics                 -0.04878471 [mEh]      -0.03061287 [kcal/mol]      -0.12808423 [kJ/mol]
      Elst10,r                     -0.04747913 [mEh]      -0.02979361 [kcal/mol]      -0.12465645 [kJ/mol]
      Elst12,r                     -0.00130557 [mEh]      -0.00081926 [kcal/mol]      -0.00342778 [kJ/mol]

    Exchange                        0.00048166 [mEh]       0.00030225 [kcal/mol]       0.00126461 [kJ/mol]
      Exch10                        0.00036483 [mEh]       0.00022893 [kcal/mol]       0.00095786 [kJ/mol]
      Exch10(S^2)                   0.00036483 [mEh]       0.00022893 [kcal/mol]       0.00095786 [kJ/mol]
      Exch11(S^2)                  -0.00000901 [mEh]      -0.00000565 [kcal/mol]      -0.00002364 [kJ/mol]
      Exch12(S^2)                   0.00012584 [mEh]       0.00007897 [kcal/mol]       0.00033039 [kJ/mol]

    Induction                      -0.00927676 [mEh]      -0.00582125 [kcal/mol]      -0.02435613 [kJ/mol]
      Ind20,r                      -0.00954760 [mEh]      -0.00599121 [kcal/mol]      -0.02506723 [kJ/mol]
      Ind22                         0.00023845 [mEh]       0.00014963 [kcal/mol]       0.00062605 [kJ/mol]
      Exch-Ind20,r                  0.00001951 [mEh]       0.00001224 [kcal/mol]       0.00005122 [kJ/mol]
      Exch-Ind22                   -0.00000049 [mEh]      -0.00000031 [kcal/mol]      -0.00000128 [kJ/mol]
      delta HF,r (2)                0.00001337 [mEh]       0.00000839 [kcal/mol]       0.00003510 [kJ/mol]

    Dispersion                     -0.03876950 [mEh]      -0.02432823 [kcal/mol]      -0.10178930 [kJ/mol]
      Disp20                       -0.03521887 [mEh]      -0.02210018 [kcal/mol]      -0.09246714 [kJ/mol]
      Disp21                        0.00022015 [mEh]       0.00013814 [kcal/mol]       0.00057800 [kJ/mol]
      Disp22 (SDQ)                  0.00174268 [mEh]       0.00109355 [kcal/mol]       0.00457541 [kJ/mol]
      Disp22 (T)                   -0.00527993 [mEh]      -0.00331321 [kcal/mol]      -0.01386246 [kJ/mol]
      Est. Disp22 (T)              -0.00557489 [mEh]      -0.00349830 [kcal/mol]      -0.01463688 [kJ/mol]
      Exch-Disp20                   0.00006144 [mEh]       0.00003855 [kcal/mol]       0.00016131 [kJ/mol]

  Total HF                         -0.05662903 [mEh]      -0.03553525 [kcal/mol]      -0.14867949 [kJ/mol]
  Total SAPT0                      -0.09178646 [mEh]      -0.05759687 [kcal/mol]      -0.24098532 [kJ/mol]
  Total SAPT2                      -0.09273724 [mEh]      -0.05819349 [kcal/mol]      -0.24348158 [kJ/mol]
  Total SAPT2+                     -0.09634930 [mEh]      -0.06046010 [kcal/mol]      -0.25296505 [kJ/mol]

  Special recipe for scaled SAPT0 (see Manual):
    Electrostatics sSAPT0          -0.04747913 [mEh]      -0.02979361 [kcal/mol]      -0.12465645 [kJ/mol]
    Exchange sSAPT0                 0.00036483 [mEh]       0.00022893 [kcal/mol]       0.00095786 [kJ/mol]
    Induction sSAPT0               -0.00951472 [mEh]      -0.00597058 [kcal/mol]      -0.02498090 [kJ/mol]
    Dispersion sSAPT0              -0.03515744 [mEh]      -0.02206162 [kcal/mol]      -0.09230583 [kJ/mol]
  Total sSAPT0                     -0.09178646 [mEh]      -0.05759687 [kcal/mol]      -0.24098532 [kJ/mol]
  --------------------------------------------------------------------------------------------------------

*** Psi4 exiting successfully. Buy a developer a beer!
