                               Psi4 1.4a2.dev224

  ==> Input File <==

--------------------------------------------------------------------------
#Generated by lconvert.py for sapt job

memory 50 GB

molecule  {
0 1
  C      -2.024830    0.000030   -0.000010
  H      -2.390900   -0.618790   -0.813960
  H      -2.391450   -0.395610    0.942610
  H      -2.391760    1.014030   -0.128930
  H      -0.938770    0.000470    0.000290
--
0 1
  N       1.766050    0.000100    0.000010
  H       2.159090    0.376320   -0.852820
  H       2.159140    0.550080    0.752560
  H       2.157710   -0.927180    0.100370
units angstrom
no_reorient
symmetry c1
}

set {
scf_type DF
basis aug-cc-pvtz
freeze_core True
guess SAD
}
energy('sapt2+')
--------------------------------------------------------------------------

  //              Dimer HF             //
    Molecular point group: c1
  Charge       = 0
  Multiplicity = 1
  Basis Set: AUG-CC-PVTZ
    Blend: AUG-CC-PVTZ
  Basis Set: (AUG-CC-PVTZ AUX)
    Blend: AUG-CC-PVTZ-JKFIT
  @DF-RHF Final Energy:   -96.43365271151460
    Total Energy =                        -96.4336527115145969
  //            Monomer A HF           //
    Molecular point group: c1
  Multiplicity = 1
  Basis Set: AUG-CC-PVTZ
    Blend: AUG-CC-PVTZ
  Basis Set: (AUG-CC-PVTZ AUX)
    Blend: AUG-CC-PVTZ-JKFIT
  @DF-RHF Final Energy:   -40.21366753388879
    Total Energy =                        -40.2136675338887954
  //            Monomer B HF           //
    Molecular point group: c1

    Geometry (in Angstrom), charge = 0, multiplicity = 1:

       Center              X                  Y                   Z               Mass
    ------------   -----------------  -----------------  -----------------  -----------------
      Gh(C)          -1.987998194813    -0.000002518340    -0.000014264335    12.000000000000
      Gh(H)          -2.354068194813    -0.618822518340    -0.813964264335     1.007825032230
      Gh(H)          -2.354618194813    -0.395642518340     0.942605735665     1.007825032230
      Gh(H)          -2.354928194813     1.013997481660    -0.128934264335     1.007825032230
      Gh(H)          -0.901938194813     0.000437481660     0.000285735665     1.007825032230
         N            1.802881805187     0.000067481660     0.000005735665    14.003074004430
         H            2.195921805187     0.376287481660    -0.852824264335     1.007825032230
         H            2.195971805187     0.550047481660     0.752555735665     1.007825032230
         H            2.194541805187    -0.927212518340     0.100365735665     1.007825032230

  Charge       = 0
  Multiplicity = 1
  Basis Set: AUG-CC-PVTZ
    Blend: AUG-CC-PVTZ
  Basis Set: (AUG-CC-PVTZ AUX)
    Blend: AUG-CC-PVTZ-JKFIT

    Orbital Energies [Eh]
    ---------------------

    Doubly Occupied:

       1A    -15.542142     2A     -1.144253     3A     -0.627769
       4A     -0.627745     5A     -0.431942

  @DF-RHF Final Energy:   -56.22025494630502

   => Energetics <=

    Nuclear Repulsion Energy =             11.9684311275057809
    One-Electron Energy =                 -99.6296658082475801
    Two-Electron Energy =                  31.4409797344367803
    Total Energy =                        -56.2202549463050190

  Dipole Moment: [D]
     X:     1.6566      Y:    -0.0016      Z:     0.0001     Total:     1.6566

    SAPT Results
  --------------------------------------------------------------------------------------------------------
    Electrostatics                 -1.91727268 [mEh]      -1.20310677 [kcal/mol]      -5.03379873 [kJ/mol]
      Elst10,r                     -1.76513695 [mEh]      -1.10764016 [kcal/mol]      -4.63436643 [kJ/mol]
      Elst12,r                     -0.15213573 [mEh]      -0.09546661 [kcal/mol]      -0.39943230 [kJ/mol]

    Exchange                        3.01764389 [mEh]       1.89360013 [kcal/mol]       7.92282294 [kJ/mol]
      Exch10                        2.75331713 [mEh]       1.72773258 [kcal/mol]       7.22883312 [kJ/mol]
      Exch10(S^2)                   2.74605664 [mEh]       1.72317656 [kcal/mol]       7.20977071 [kJ/mol]
      Exch11(S^2)                   0.04764803 [mEh]       0.02989959 [kcal/mol]       0.12509989 [kJ/mol]
      Exch12(S^2)                   0.21667873 [mEh]       0.13596796 [kcal/mol]       0.56888992 [kJ/mol]

    Induction                      -0.74420272 [mEh]      -0.46699426 [kcal/mol]      -1.95390398 [kJ/mol]
      Ind20,r                      -0.81784020 [mEh]      -0.51320247 [kcal/mol]      -2.14723914 [kJ/mol]
      Ind22                        -0.04489708 [mEh]      -0.02817334 [kcal/mol]      -0.11787727 [kJ/mol]
      Exch-Ind20,r                  0.34803014 [mEh]       0.21839221 [kcal/mol]       0.91375301 [kJ/mol]
      Exch-Ind22                    0.01910586 [mEh]       0.01198911 [kcal/mol]       0.05016242 [kJ/mol]
      delta HF,r (2)               -0.24860144 [mEh]      -0.15599976 [kcal/mol]      -0.65270299 [kJ/mol]

    Dispersion                     -1.77960816 [mEh]      -1.11672098 [kcal/mol]      -4.67236058 [kJ/mol]
      Disp20                       -1.79566127 [mEh]      -1.12679446 [kcal/mol]      -4.71450800 [kJ/mol]
      Disp21                       -0.06117933 [mEh]      -0.03839061 [kcal/mol]      -0.16062631 [kJ/mol]
      Disp22 (SDQ)                  0.08055155 [mEh]       0.05054686 [kcal/mol]       0.21148807 [kJ/mol]
      Disp22 (T)                   -0.21998333 [mEh]      -0.13804162 [kcal/mol]      -0.57756615 [kJ/mol]
      Est. Disp22 (T)              -0.26093307 [mEh]      -0.16373797 [kcal/mol]      -0.68507968 [kJ/mol]
      Exch-Disp20                   0.25761395 [mEh]       0.16165520 [kcal/mol]       0.67636534 [kJ/mol]

  Total HF                          0.26976868 [mEh]       0.16928240 [kcal/mol]       0.70827757 [kJ/mol]
  Total SAPT0                      -1.26827863 [mEh]      -0.79585686 [kcal/mol]      -3.32986509 [kJ/mol]
  Total SAPT2                      -1.18187882 [mEh]      -0.74164016 [kcal/mol]      -3.10302242 [kJ/mol]
  Total SAPT2+                     -1.42343967 [mEh]      -0.89322188 [kcal/mol]      -3.73724034 [kJ/mol]

  Special recipe for scaled SAPT0 (see Manual):
    Electrostatics sSAPT0          -1.76513695 [mEh]      -1.10764016 [kcal/mol]      -4.63436643 [kJ/mol]
    Exchange sSAPT0                 2.75331713 [mEh]       1.72773258 [kcal/mol]       7.22883312 [kJ/mol]
    Induction sSAPT0               -0.71564365 [mEh]      -0.44907317 [kcal/mol]      -1.87892214 [kJ/mol]
    Dispersion sSAPT0              -1.53599853 [mEh]      -0.96385363 [kcal/mol]      -4.03276360 [kJ/mol]
  Total sSAPT0                     -1.26346201 [mEh]      -0.79283438 [kcal/mol]      -3.31721904 [kJ/mol]
  --------------------------------------------------------------------------------------------------------

*** Psi4 exiting successfully. Buy a developer a beer!
