                               Psi4 1.4a2.dev224

  ==> Input File <==

--------------------------------------------------------------------------
#Generated by lconvert.py for sapt job

memory 50 GB

molecule  {
0 1
  C      -2.024830    0.000030   -0.000010
  H      -2.390900   -0.618790   -0.813960
  H      -2.391450   -0.395610    0.942610
  H      -2.391760    1.014030   -0.128930
  H      -0.938770    0.000470    0.000290
--
0 1
  N       1.338970    0.000160    0.000050
  H       1.732010    0.376370   -0.852770
  H       1.732060    0.550130    0.752600
  H       1.730630   -0.927120    0.100410
units angstrom
no_reorient
symmetry c1
}

set {
scf_type DF
basis aug-cc-pvtz
freeze_core True
guess SAD
}
energy('sapt2+')
--------------------------------------------------------------------------

  //              Dimer HF             //
    Molecular point group: c1
  Charge       = 0
  Multiplicity = 1
  Basis Set: AUG-CC-PVTZ
    Blend: AUG-CC-PVTZ
  Basis Set: (AUG-CC-PVTZ AUX)
    Blend: AUG-CC-PVTZ-JKFIT
  @DF-RHF Final Energy:   -96.43062173530060
    Total Energy =                        -96.4306217353006048
  //            Monomer A HF           //
    Molecular point group: c1
  Multiplicity = 1
  Basis Set: AUG-CC-PVTZ
    Blend: AUG-CC-PVTZ
  Basis Set: (AUG-CC-PVTZ AUX)
    Blend: AUG-CC-PVTZ-JKFIT
  @DF-RHF Final Energy:   -40.21367364922758
    Total Energy =                        -40.2136736492275801
  //            Monomer B HF           //
    Molecular point group: c1

    Geometry (in Angstrom), charge = 0, multiplicity = 1:

       Center              X                  Y                   Z               Mass
    ------------   -----------------  -----------------  -----------------  -----------------
      Gh(C)          -1.768029299090    -0.000032811794    -0.000035171328    12.000000000000
      Gh(H)          -2.134099299090    -0.618852811794    -0.813985171328     1.007825032230
      Gh(H)          -2.134649299090    -0.395672811794     0.942584828672     1.007825032230
      Gh(H)          -2.134959299090     1.013967188206    -0.128955171328     1.007825032230
      Gh(H)          -0.681969299090     0.000407188206     0.000264828672     1.007825032230
         N            1.595770700910     0.000097188206     0.000024828672    14.003074004430
         H            1.988810700910     0.376307188206    -0.852795171328     1.007825032230
         H            1.988860700910     0.550067188206     0.752574828672     1.007825032230
         H            1.987430700910    -0.927182811794     0.100384828672     1.007825032230

  Charge       = 0
  Multiplicity = 1
  Basis Set: AUG-CC-PVTZ
    Blend: AUG-CC-PVTZ
  Basis Set: (AUG-CC-PVTZ AUX)
    Blend: AUG-CC-PVTZ-JKFIT

    Orbital Energies [Eh]
    ---------------------

    Doubly Occupied:

       1A    -15.542125     2A     -1.144251     3A     -0.627764
       4A     -0.627745     5A     -0.431941

  @DF-RHF Final Energy:   -56.22026260308181

   => Energetics <=

    Nuclear Repulsion Energy =             11.9685014962021974
    One-Electron Energy =                 -99.6298753979182123
    Two-Electron Energy =                  31.4411112986342083
    Total Energy =                        -56.2202626030818067

  Dipole Moment: [D]
     X:     1.6564      Y:    -0.0016      Z:     0.0001     Total:     1.6564

    SAPT Results
  --------------------------------------------------------------------------------------------------------
    Electrostatics                 -5.60075898 [mEh]      -3.51452932 [kcal/mol]     -14.70479068 [kJ/mol]
      Elst10,r                     -5.23709898 [mEh]      -3.28632922 [kcal/mol]     -13.75000147 [kJ/mol]
      Elst12,r                     -0.36366000 [mEh]      -0.22820010 [kcal/mol]      -0.95478921 [kJ/mol]

    Exchange                       11.43297327 [mEh]       7.17429904 [kcal/mol]      30.01726718 [kJ/mol]
      Exch10                       10.73269244 [mEh]       6.73486618 [kcal/mol]      28.17868012 [kJ/mol]
      Exch10(S^2)                  10.63462298 [mEh]       6.67332667 [kcal/mol]      27.92119877 [kJ/mol]
      Exch11(S^2)                   0.24123215 [mEh]       0.15137546 [kcal/mol]       0.63335493 [kJ/mol]
      Exch12(S^2)                   0.45904867 [mEh]       0.28805739 [kcal/mol]       1.20523213 [kJ/mol]

    Induction                      -2.24921907 [mEh]      -1.41140627 [kcal/mol]      -5.90532385 [kJ/mol]
      Ind20,r                      -2.91834304 [mEh]      -1.83128790 [kcal/mol]      -7.66210859 [kJ/mol]
      Ind22                        -0.17670651 [mEh]      -0.11088501 [kcal/mol]      -0.46394288 [kJ/mol]
      Exch-Ind20,r                  1.79295423 [mEh]       1.12509576 [kcal/mol]       4.70740067 [kJ/mol]
      Exch-Ind22                    0.10856389 [mEh]       0.06812487 [kcal/mol]       0.28503447 [kJ/mol]
      delta HF,r (2)               -1.05568764 [mEh]      -0.66245400 [kcal/mol]      -2.77170753 [kJ/mol]

    Dispersion                     -3.84495987 [mEh]      -2.41274875 [kcal/mol]     -10.09494076 [kJ/mol]
      Disp20                       -4.24940281 [mEh]      -2.66654052 [kcal/mol]     -11.15680553 [kJ/mol]
      Disp21                       -0.06670570 [mEh]      -0.04185846 [kcal/mol]      -0.17513579 [kJ/mol]
      Disp22 (SDQ)                  0.20312368 [mEh]       0.12746203 [kcal/mol]       0.53330114 [kJ/mol]
      Disp22 (T)                   -0.49044881 [mEh]      -0.30776128 [kcal/mol]      -1.28767319 [kJ/mol]
      Est. Disp22 (T)              -0.58222911 [mEh]      -0.36535428 [kcal/mol]      -1.52864230 [kJ/mol]
      Exch-Disp20                   0.85025406 [mEh]       0.53354248 [kcal/mol]       2.23234173 [kJ/mol]

  Total HF                          3.31451701 [mEh]       2.07989082 [kcal/mol]       8.70226321 [kJ/mol]
  Total SAPT0                      -0.08463174 [mEh]      -0.05310722 [kcal/mol]      -0.22220059 [kJ/mol]
  Total SAPT2                       0.18384647 [mEh]       0.11536540 [kcal/mol]       0.48268884 [kJ/mol]
  Total SAPT2+                     -0.26196466 [mEh]      -0.16438531 [kcal/mol]      -0.68778812 [kJ/mol]

  Special recipe for scaled SAPT0 (see Manual):
    Electrostatics sSAPT0          -5.23709898 [mEh]      -3.28632922 [kcal/mol]     -13.75000147 [kJ/mol]
    Exchange sSAPT0                10.73269244 [mEh]       6.73486618 [kcal/mol]      28.17868012 [kJ/mol]
    Induction sSAPT0               -2.13101529 [mEh]      -1.33723228 [kcal/mol]      -5.59497987 [kJ/mol]
    Dispersion sSAPT0              -3.37540876 [mEh]      -2.11810097 [kcal/mol]      -8.86213448 [kJ/mol]
  Total sSAPT0                     -0.01083059 [mEh]      -0.00679630 [kcal/mol]      -0.02843570 [kJ/mol]
  --------------------------------------------------------------------------------------------------------

*** Psi4 exiting successfully. Buy a developer a beer!
