                               Psi4 1.4a2.dev224

  ==> Input File <==

--------------------------------------------------------------------------
#Generated by lconvert.py for sapt job

memory 50 GB

molecule  {
0 1
  C      -2.024830    0.000030   -0.000010
  H      -2.390900   -0.618790   -0.813960
  H      -2.391450   -0.395610    0.942610
  H      -2.391760    1.014030   -0.128930
  H      -0.938770    0.000470    0.000290
--
0 1
  N       1.908410    0.000090   -0.000010
  H       2.301450    0.376300   -0.852830
  H       2.301500    0.550060    0.752550
  H       2.300070   -0.927200    0.100350
units angstrom
no_reorient
symmetry c1
}

set {
scf_type DF
basis aug-cc-pvtz
freeze_core True
guess SAD
}
energy('sapt2+')
--------------------------------------------------------------------------

  //              Dimer HF             //
    Molecular point group: c1
  Charge       = 0
  Multiplicity = 1
  Basis Set: AUG-CC-PVTZ
    Blend: AUG-CC-PVTZ
  Basis Set: (AUG-CC-PVTZ AUX)
    Blend: AUG-CC-PVTZ-JKFIT
  @DF-RHF Final Energy:   -96.43396626282336
    Total Energy =                        -96.4339662628233611
  //            Monomer A HF           //
    Molecular point group: c1
  Multiplicity = 1
  Basis Set: AUG-CC-PVTZ
    Blend: AUG-CC-PVTZ
  Basis Set: (AUG-CC-PVTZ AUX)
    Blend: AUG-CC-PVTZ-JKFIT
  @DF-RHF Final Energy:   -40.21366561067159
    Total Energy =                        -40.2136656106715975
  //            Monomer B HF           //
    Molecular point group: c1

    Geometry (in Angstrom), charge = 0, multiplicity = 1:

       Center              X                  Y                   Z               Mass
    ------------   -----------------  -----------------  -----------------  -----------------
      Gh(C)          -2.061321160054     0.000003546793    -0.000004573006    12.000000000000
      Gh(H)          -2.427391160054    -0.618816453207    -0.813954573006     1.007825032230
      Gh(H)          -2.427941160054    -0.395636453207     0.942615426994     1.007825032230
      Gh(H)          -2.428251160054     1.014003546793    -0.128924573006     1.007825032230
      Gh(H)          -0.975261160054     0.000443546793     0.000295426994     1.007825032230
         N            1.871918839946     0.000063546793    -0.000004573006    14.003074004430
         H            2.264958839946     0.376273546793    -0.852824573006     1.007825032230
         H            2.265008839946     0.550033546793     0.752555426994     1.007825032230
         H            2.263578839946    -0.927226453207     0.100355426994     1.007825032230

  Charge       = 0
  Multiplicity = 1
  Basis Set: AUG-CC-PVTZ
    Blend: AUG-CC-PVTZ
  Basis Set: (AUG-CC-PVTZ AUX)
    Blend: AUG-CC-PVTZ-JKFIT

    Orbital Energies [Eh]
    ---------------------

    Doubly Occupied:

       1A    -15.542147     2A     -1.144256     3A     -0.627768
       4A     -0.627751     5A     -0.431943

  @DF-RHF Final Energy:   -56.22025428084939

   => Energetics <=

    Nuclear Repulsion Energy =             11.9684350544739413
    One-Electron Energy =                 -99.6296458224950783
    Two-Electron Energy =                  31.4409564871717500
    Total Energy =                        -56.2202542808493888

  Dipole Moment: [D]
     X:     1.6567      Y:    -0.0016      Z:     0.0001     Total:     1.6567

    SAPT Results
  --------------------------------------------------------------------------------------------------------
    Electrostatics                 -1.38695448 [mEh]      -0.87032707 [kcal/mol]      -3.64144848 [kJ/mol]
      Elst10,r                     -1.27626268 [mEh]      -0.80086692 [kcal/mol]      -3.35082721 [kJ/mol]
      Elst12,r                     -0.11069180 [mEh]      -0.06946015 [kcal/mol]      -0.29062127 [kJ/mol]

    Exchange                        1.92698349 [mEh]       1.20920040 [kcal/mol]       5.05929446 [kJ/mol]
      Exch10                        1.74148030 [mEh]       1.09279538 [kcal/mol]       4.57225589 [kJ/mol]
      Exch10(S^2)                   1.73846711 [mEh]       1.09090458 [kcal/mol]       4.56434476 [kJ/mol]
      Exch11(S^2)                   0.02635930 [mEh]       0.01654071 [kcal/mol]       0.06920634 [kJ/mol]
      Exch12(S^2)                   0.15914389 [mEh]       0.09986430 [kcal/mol]       0.41783222 [kJ/mol]

    Induction                      -0.52937771 [mEh]      -0.33218953 [kcal/mol]      -1.38988100 [kJ/mol]
      Ind20,r                      -0.56241303 [mEh]      -0.35291951 [kcal/mol]      -1.47661522 [kJ/mol]
      Ind22                        -0.02778726 [mEh]      -0.01743677 [kcal/mol]      -0.07295545 [kJ/mol]
      Exch-Ind20,r                  0.20236853 [mEh]       0.12698817 [kcal/mol]       0.53131851 [kJ/mol]
      Exch-Ind22                    0.00999847 [mEh]       0.00627413 [kcal/mol]       0.02625097 [kJ/mol]
      delta HF,r (2)               -0.15154441 [mEh]      -0.09509555 [kcal/mol]      -0.39787980 [kJ/mol]

    Dispersion                     -1.38647121 [mEh]      -0.87002382 [kcal/mol]      -3.64017965 [kJ/mol]
      Disp20                       -1.36445809 [mEh]      -0.85621038 [kcal/mol]      -3.58238421 [kJ/mol]
      Disp21                       -0.05077598 [mEh]      -0.03186241 [kcal/mol]      -0.13331233 [kJ/mol]
      Disp22 (SDQ)                  0.05987284 [mEh]       0.03757077 [kcal/mol]       0.15719612 [kJ/mol]
      Disp22 (T)                   -0.17213597 [mEh]      -0.10801695 [kcal/mol]      -0.45194294 [kJ/mol]
      Est. Disp22 (T)              -0.20180290 [mEh]      -0.12663323 [kcal/mol]      -0.52983344 [kJ/mol]
      Exch-Disp20                   0.17069293 [mEh]       0.10711143 [kcal/mol]       0.44815422 [kJ/mol]

  Total HF                         -0.04637130 [mEh]      -0.02909843 [kcal/mol]      -0.12174784 [kJ/mol]
  Total SAPT0                      -1.24013646 [mEh]      -0.77819738 [kcal/mol]      -3.25597783 [kJ/mol]
  Total SAPT2                      -1.18311386 [mEh]      -0.74241516 [kcal/mol]      -3.10626502 [kJ/mol]
  Total SAPT2+                     -1.37581991 [mEh]      -0.86334003 [kcal/mol]      -3.61221467 [kJ/mol]

  Special recipe for scaled SAPT0 (see Manual):
    Electrostatics sSAPT0          -1.27626268 [mEh]      -0.80086692 [kcal/mol]      -3.35082721 [kJ/mol]
    Exchange sSAPT0                 1.74148030 [mEh]       1.09279538 [kcal/mol]       4.57225589 [kJ/mol]
    Induction sSAPT0               -0.51053483 [mEh]      -0.32036544 [kcal/mol]      -1.34040901 [kJ/mol]
    Dispersion sSAPT0              -1.19287606 [mEh]      -0.74854103 [kcal/mol]      -3.13189567 [kJ/mol]
  Total sSAPT0                     -1.23819328 [mEh]      -0.77697801 [kcal/mol]      -3.25087600 [kJ/mol]
  --------------------------------------------------------------------------------------------------------

*** Psi4 exiting successfully. Buy a developer a beer!
