                               Psi4 1.4a2.dev224

  ==> Input File <==

--------------------------------------------------------------------------
#Generated by lconvert.py for sapt job

memory 50 GB

molecule  {
0 1
  C      -2.024830    0.000030   -0.000010
  H      -2.390900   -0.618790   -0.813960
  H      -2.391450   -0.395610    0.942610
  H      -2.391760    1.014030   -0.128930
  H      -0.938770    0.000470    0.000290
--
0 1
  N       3.616720   -0.000150   -0.000180
  H       4.009760    0.376070   -0.853010
  H       4.009810    0.549830    0.752370
  H       4.008380   -0.927430    0.100180
units angstrom
no_reorient
symmetry c1
}

set {
scf_type DF
basis aug-cc-pvtz
freeze_core True
guess SAD
}
energy('sapt2+')
--------------------------------------------------------------------------

  //              Dimer HF             //
    Molecular point group: c1
  Charge       = 0
  Multiplicity = 1
  Basis Set: AUG-CC-PVTZ
    Blend: AUG-CC-PVTZ
  Basis Set: (AUG-CC-PVTZ AUX)
    Blend: AUG-CC-PVTZ-JKFIT
  @DF-RHF Final Energy:   -96.43402088755423
    Total Energy =                        -96.4340208875542260
  //            Monomer A HF           //
    Molecular point group: c1
  Multiplicity = 1
  Basis Set: AUG-CC-PVTZ
    Blend: AUG-CC-PVTZ
  Basis Set: (AUG-CC-PVTZ AUX)
    Blend: AUG-CC-PVTZ-JKFIT
  @DF-RHF Final Energy:   -40.21365579501295
    Total Energy =                        -40.2136557950129472
  //            Monomer B HF           //
    Molecular point group: c1

    Geometry (in Angstrom), charge = 0, multiplicity = 1:

       Center              X                  Y                   Z               Mass
    ------------   -----------------  -----------------  -----------------  -----------------
      Gh(C)          -2.941191592414     0.000126244945     0.000083595762    12.000000000000
      Gh(H)          -3.307261592414    -0.618693755055    -0.813866404238     1.007825032230
      Gh(H)          -3.307811592414    -0.395513755055     0.942703595762     1.007825032230
      Gh(H)          -3.308121592414     1.014126244945    -0.128836404238     1.007825032230
      Gh(H)          -1.855131592414     0.000566244945     0.000383595762     1.007825032230
         N            2.700358407586    -0.000053755055    -0.000086404238    14.003074004430
         H            3.093398407586     0.376166244945    -0.852916404238     1.007825032230
         H            3.093448407586     0.549926244945     0.752463595762     1.007825032230
         H            3.092018407586    -0.927333755055     0.100273595762     1.007825032230

  Charge       = 0
  Multiplicity = 1
  Basis Set: AUG-CC-PVTZ
    Blend: AUG-CC-PVTZ
  Basis Set: (AUG-CC-PVTZ AUX)
    Blend: AUG-CC-PVTZ-JKFIT

    Orbital Energies [Eh]
    ---------------------

    Doubly Occupied:

       1A    -15.542145     2A     -1.144253     3A     -0.627771
       4A     -0.627747     5A     -0.431941

  @DF-RHF Final Energy:   -56.22024090284174

   => Energetics <=

    Nuclear Repulsion Energy =             11.9684311275057844
    One-Electron Energy =                 -99.6296275228346815
    Two-Electron Energy =                  31.4409554924871628
    Total Energy =                        -56.2202409028417378

  Dipole Moment: [D]
     X:     1.6558      Y:    -0.0016      Z:     0.0001     Total:     1.6558

    SAPT Results
  --------------------------------------------------------------------------------------------------------
    Electrostatics                 -0.10819839 [mEh]      -0.06789552 [kcal/mol]      -0.28407484 [kJ/mol]
      Elst10,r                     -0.10458243 [mEh]      -0.06562647 [kcal/mol]      -0.27458114 [kJ/mol]
      Elst12,r                     -0.00361596 [mEh]      -0.00226905 [kcal/mol]      -0.00949369 [kJ/mol]

    Exchange                        0.00790600 [mEh]       0.00496109 [kcal/mol]       0.02075720 [kJ/mol]
      Exch10                        0.00634469 [mEh]       0.00398135 [kcal/mol]       0.01665799 [kJ/mol]
      Exch10(S^2)                   0.00634463 [mEh]       0.00398132 [kcal/mol]       0.01665783 [kJ/mol]
      Exch11(S^2)                  -0.00008295 [mEh]      -0.00005206 [kcal/mol]      -0.00021780 [kJ/mol]
      Exch12(S^2)                   0.00164426 [mEh]       0.00103179 [kcal/mol]       0.00431701 [kJ/mol]

    Induction                      -0.02551370 [mEh]      -0.01601009 [kcal/mol]      -0.06698622 [kJ/mol]
      Ind20,r                      -0.02634224 [mEh]      -0.01653001 [kcal/mol]      -0.06916155 [kJ/mol]
      Ind22                         0.00044506 [mEh]       0.00027928 [kcal/mol]       0.00116850 [kJ/mol]
      Exch-Ind20,r                  0.00040284 [mEh]       0.00025279 [kcal/mol]       0.00105766 [kJ/mol]
      Exch-Ind22                   -0.00000681 [mEh]      -0.00000427 [kcal/mol]      -0.00001787 [kJ/mol]
      delta HF,r (2)               -0.00001256 [mEh]      -0.00000788 [kcal/mol]      -0.00003297 [kJ/mol]

    Dispersion                     -0.10387956 [mEh]      -0.06518541 [kcal/mol]      -0.27273576 [kJ/mol]
      Disp20                       -0.09315708 [mEh]      -0.05845695 [kcal/mol]      -0.24458388 [kJ/mol]
      Disp21                       -0.00118414 [mEh]      -0.00074306 [kcal/mol]      -0.00310897 [kJ/mol]
      Disp22 (SDQ)                  0.00422193 [mEh]       0.00264930 [kcal/mol]       0.01108467 [kJ/mol]
      Disp22 (T)                   -0.01352245 [mEh]      -0.00848547 [kcal/mol]      -0.03550319 [kJ/mol]
      Est. Disp22 (T)              -0.01469409 [mEh]      -0.00922068 [kcal/mol]      -0.03857934 [kJ/mol]
      Exch-Disp20                   0.00093382 [mEh]       0.00058598 [kcal/mol]       0.00245176 [kJ/mol]

  Total HF                         -0.12418970 [mEh]      -0.07793021 [kcal/mol]      -0.32606001 [kJ/mol]
  Total SAPT0                      -0.21641295 [mEh]      -0.13580118 [kcal/mol]      -0.56819213 [kJ/mol]
  Total SAPT2                      -0.21802935 [mEh]      -0.13681548 [kcal/mol]      -0.57243598 [kJ/mol]
  Total SAPT2+                     -0.22968566 [mEh]      -0.14412993 [kcal/mol]      -0.60303961 [kJ/mol]

  Special recipe for scaled SAPT0 (see Manual):
    Electrostatics sSAPT0          -0.10458243 [mEh]      -0.06562647 [kcal/mol]      -0.27458114 [kJ/mol]
    Exchange sSAPT0                 0.00634469 [mEh]       0.00398135 [kcal/mol]       0.01665799 [kJ/mol]
    Induction sSAPT0               -0.02595196 [mEh]      -0.01628510 [kcal/mol]      -0.06813686 [kJ/mol]
    Dispersion sSAPT0              -0.09222325 [mEh]      -0.05787097 [kcal/mol]      -0.24213212 [kJ/mol]
  Total sSAPT0                     -0.21641295 [mEh]      -0.13580118 [kcal/mol]      -0.56819213 [kJ/mol]
  --------------------------------------------------------------------------------------------------------

*** Psi4 exiting successfully. Buy a developer a beer!
