                               Psi4 1.4a2.dev224

  ==> Input File <==

--------------------------------------------------------------------------
#Generated by lconvert.py for sapt job

memory 50 GB

molecule  {
0 1
  C      -2.024830    0.000030   -0.000010
  H      -2.390900   -0.618790   -0.813960
  H      -2.391450   -0.395610    0.942610
  H      -2.391760    1.014030   -0.128930
  H      -0.938770    0.000470    0.000290
--
0 1
  N       2.050770    0.000070   -0.000020
  H       2.443800    0.376280   -0.852850
  H       2.443860    0.550040    0.752530
  H       2.442430   -0.927220    0.100340
units angstrom
no_reorient
symmetry c1
}

set {
scf_type DF
basis aug-cc-pvtz
freeze_core True
guess SAD
}
energy('sapt2+')
--------------------------------------------------------------------------

  //              Dimer HF             //
    Molecular point group: c1
  Charge       = 0
  Multiplicity = 1
  Basis Set: AUG-CC-PVTZ
    Blend: AUG-CC-PVTZ
  Basis Set: (AUG-CC-PVTZ AUX)
    Blend: AUG-CC-PVTZ-JKFIT
  @DF-RHF Final Energy:   -96.43413099973458
    Total Energy =                        -96.4341309997345775
  //            Monomer A HF           //
    Molecular point group: c1
  Multiplicity = 1
  Basis Set: AUG-CC-PVTZ
    Blend: AUG-CC-PVTZ
  Basis Set: (AUG-CC-PVTZ AUX)
    Blend: AUG-CC-PVTZ-JKFIT
  @DF-RHF Final Energy:   -40.21366380503984
    Total Energy =                        -40.2136638050398432
  //            Monomer B HF           //
    Molecular point group: c1

    Geometry (in Angstrom), charge = 0, multiplicity = 1:

       Center              X                  Y                   Z               Mass
    ------------   -----------------  -----------------  -----------------  -----------------
      Gh(C)          -2.134643820428     0.000013847856     0.000001187259    12.000000000000
      Gh(H)          -2.500713820428    -0.618806152144    -0.813948812741     1.007825032230
      Gh(H)          -2.501263820428    -0.395626152144     0.942621187259     1.007825032230
      Gh(H)          -2.501573820428     1.014013847856    -0.128918812741     1.007825032230
      Gh(H)          -1.048583820428     0.000453847856     0.000301187259     1.007825032230
         N            1.940956179572     0.000053847856    -0.000008812741    14.003074004430
         H            2.333986179572     0.376263847856    -0.852838812741     1.007825032230
         H            2.334046179572     0.550023847856     0.752541187259     1.007825032230
         H            2.332616179572    -0.927236152144     0.100351187259     1.007825032230

  Charge       = 0
  Multiplicity = 1
  Basis Set: AUG-CC-PVTZ
    Blend: AUG-CC-PVTZ
  Basis Set: (AUG-CC-PVTZ AUX)
    Blend: AUG-CC-PVTZ-JKFIT

    Orbital Energies [Eh]
    ---------------------

    Doubly Occupied:

       1A    -15.542150     2A     -1.144258     3A     -0.627771
       4A     -0.627755     5A     -0.431944

  @DF-RHF Final Energy:   -56.22025302547051

   => Energetics <=

    Nuclear Repulsion Energy =             11.9684451538279095
    One-Electron Energy =                 -99.6296393211042641
    Two-Electron Energy =                  31.4409411418058440
    Total Energy =                        -56.2202530254705053

  Dipole Moment: [D]
     X:     1.6567      Y:    -0.0016      Z:     0.0001     Total:     1.6567

    SAPT Results
  --------------------------------------------------------------------------------------------------------
    Electrostatics                 -1.02328881 [mEh]      -0.64212342 [kcal/mol]      -2.68664440 [kJ/mol]
      Elst10,r                     -0.94327223 [mEh]      -0.59191226 [kcal/mol]      -2.47656089 [kJ/mol]
      Elst12,r                     -0.08001658 [mEh]      -0.05021116 [kcal/mol]      -0.21008351 [kJ/mol]

    Exchange                        1.22835138 [mEh]       0.77080213 [kcal/mol]       3.22503610 [kJ/mol]
      Exch10                        1.09940823 [mEh]       0.68988908 [kcal/mol]       2.88649591 [kJ/mol]
      Exch10(S^2)                   1.09816351 [mEh]       0.68910801 [kcal/mol]       2.88322789 [kJ/mol]
      Exch11(S^2)                   0.01411772 [mEh]       0.00885900 [kcal/mol]       0.03706606 [kJ/mol]
      Exch12(S^2)                   0.11482543 [mEh]       0.07205404 [kcal/mol]       0.30147412 [kJ/mol]

    Induction                      -0.38217311 [mEh]      -0.23981725 [kcal/mol]      -1.00339537 [kJ/mol]
      Ind20,r                      -0.39630335 [mEh]      -0.24868411 [kcal/mol]      -1.04049431 [kJ/mol]
      Ind22                        -0.01689953 [mEh]      -0.01060461 [kcal/mol]      -0.04436970 [kJ/mol]
      Exch-Ind20,r                  0.11799476 [mEh]       0.07404283 [kcal/mol]       0.30979521 [kJ/mol]
      Exch-Ind22                    0.00503164 [mEh]       0.00315740 [kcal/mol]       0.01321057 [kJ/mol]
      delta HF,r (2)               -0.09199664 [mEh]      -0.05772876 [kcal/mol]      -0.24153714 [kJ/mol]

    Dispersion                     -1.08401118 [mEh]      -0.68022728 [kcal/mol]      -2.84607096 [kJ/mol]
      Disp20                       -1.04416205 [mEh]      -0.65522158 [kcal/mol]      -2.74144709 [kJ/mol]
      Disp21                       -0.04074880 [mEh]      -0.02557026 [kcal/mol]      -0.10698597 [kJ/mol]
      Disp22 (SDQ)                  0.04499252 [mEh]       0.02823323 [kcal/mol]       0.11812784 [kJ/mol]
      Disp22 (T)                   -0.13152238 [mEh]      -0.08253154 [kcal/mol]      -0.34531197 [kJ/mol]
      Est. Disp22 (T)              -0.15660478 [mEh]      -0.09827099 [kcal/mol]      -0.41116581 [kJ/mol]
      Exch-Disp20                   0.11251194 [mEh]       0.07060231 [kcal/mol]       0.29540006 [kJ/mol]

  Total HF                         -0.21416922 [mEh]      -0.13439322 [kcal/mol]      -0.56230122 [kJ/mol]
  Total SAPT0                      -1.14581933 [mEh]      -0.71901249 [kcal/mol]      -3.00834824 [kJ/mol]
  Total SAPT2                      -1.10876066 [mEh]      -0.69575782 [kcal/mol]      -2.91105070 [kJ/mol]
  Total SAPT2+                     -1.26112173 [mEh]      -0.79136583 [kcal/mol]      -3.31107464 [kJ/mol]

  Special recipe for scaled SAPT0 (see Manual):
    Electrostatics sSAPT0          -0.94327223 [mEh]      -0.59191226 [kcal/mol]      -2.47656089 [kJ/mol]
    Exchange sSAPT0                 1.09940823 [mEh]       0.68988908 [kcal/mol]       2.88649591 [kJ/mol]
    Induction sSAPT0               -0.36990355 [mEh]      -0.23211798 [kcal/mol]      -0.97118163 [kJ/mol]
    Dispersion sSAPT0              -0.93126709 [mEh]      -0.58437892 [kcal/mol]      -2.44504141 [kJ/mol]
  Total sSAPT0                     -1.14503464 [mEh]      -0.71852008 [kcal/mol]      -3.00628802 [kJ/mol]
  --------------------------------------------------------------------------------------------------------

*** Psi4 exiting successfully. Buy a developer a beer!
