                               Psi4 1.4a2.dev224

  ==> Input File <==

--------------------------------------------------------------------------
#Generated by lconvert.py for sapt job

memory 50 GB

molecule  {
0 1
  C      -2.024830    0.000030   -0.000010
  H      -2.390900   -0.618790   -0.813960
  H      -2.391450   -0.395610    0.942610
  H      -2.391760    1.014030   -0.128930
  H      -0.938770    0.000470    0.000290
--
0 1
  N       2.193130    0.000050   -0.000040
  H       2.586160    0.376260   -0.852860
  H       2.586220    0.550020    0.752520
  H       2.584790   -0.927240    0.100320
units angstrom
no_reorient
symmetry c1
}

set {
scf_type DF
basis aug-cc-pvtz
freeze_core True
guess SAD
}
energy('sapt2+')
--------------------------------------------------------------------------

  //              Dimer HF             //
    Molecular point group: c1
  Charge       = 0
  Multiplicity = 1
  Basis Set: AUG-CC-PVTZ
    Blend: AUG-CC-PVTZ
  Basis Set: (AUG-CC-PVTZ AUX)
    Blend: AUG-CC-PVTZ-JKFIT
  @DF-RHF Final Energy:   -96.43420563405762
    Total Energy =                        -96.4342056340576192
  //            Monomer A HF           //
    Molecular point group: c1
  Multiplicity = 1
  Basis Set: AUG-CC-PVTZ
    Blend: AUG-CC-PVTZ
  Basis Set: (AUG-CC-PVTZ AUX)
    Blend: AUG-CC-PVTZ-JKFIT
  @DF-RHF Final Energy:   -40.21366216771379
    Total Energy =                        -40.2136621677137924
  //            Monomer B HF           //
    Molecular point group: c1

    Geometry (in Angstrom), charge = 0, multiplicity = 1:

       Center              X                  Y                   Z               Mass
    ------------   -----------------  -----------------  -----------------  -----------------
      Gh(C)          -2.207966785669     0.000024148918     0.000010878588    12.000000000000
      Gh(H)          -2.574036785669    -0.618795851082    -0.813939121412     1.007825032230
      Gh(H)          -2.574586785669    -0.395615851082     0.942630878588     1.007825032230
      Gh(H)          -2.574896785669     1.014024148918    -0.128909121412     1.007825032230
      Gh(H)          -1.121906785669     0.000464148918     0.000310878588     1.007825032230
         N            2.009993214331     0.000044148918    -0.000019121412    14.003074004430
         H            2.403023214331     0.376254148918    -0.852839121412     1.007825032230
         H            2.403083214331     0.550014148918     0.752540878588     1.007825032230
         H            2.401653214331    -0.927245851082     0.100340878588     1.007825032230

  Charge       = 0
  Multiplicity = 1
  Basis Set: AUG-CC-PVTZ
    Blend: AUG-CC-PVTZ
  Basis Set: (AUG-CC-PVTZ AUX)
    Blend: AUG-CC-PVTZ-JKFIT

    Orbital Energies [Eh]
    ---------------------

    Doubly Occupied:

       1A    -15.542152     2A     -1.144260     3A     -0.627773
       4A     -0.627756     5A     -0.431944

  @DF-RHF Final Energy:   -56.22025097734184

   => Energetics <=

    Nuclear Repulsion Energy =             11.9684491204296588
    One-Electron Energy =                 -99.6296267566095253
    Two-Electron Energy =                  31.4409266588380305
    Total Energy =                        -56.2202509773418413

  Dipole Moment: [D]
     X:     1.6568      Y:    -0.0016      Z:     0.0001     Total:     1.6568

    SAPT Results
  --------------------------------------------------------------------------------------------------------
    Electrostatics                 -0.77068984 [mEh]      -0.48361518 [kcal/mol]      -2.02344589 [kJ/mol]
      Elst10,r                     -0.71297281 [mEh]      -0.44739719 [kcal/mol]      -1.87190986 [kJ/mol]
      Elst12,r                     -0.05771703 [mEh]      -0.03621798 [kcal/mol]      -0.15153604 [kJ/mol]

    Exchange                        0.78161685 [mEh]       0.49047198 [kcal/mol]       2.05213476 [kJ/mol]
      Exch10                        0.69286889 [mEh]       0.43478180 [kcal/mol]       1.81912703 [kJ/mol]
      Exch10(S^2)                   0.69235680 [mEh]       0.43446045 [kcal/mol]       1.81778252 [kJ/mol]
      Exch11(S^2)                   0.00725225 [mEh]       0.00455085 [kcal/mol]       0.01904077 [kJ/mol]
      Exch12(S^2)                   0.08149571 [mEh]       0.05113933 [kcal/mol]       0.21396696 [kJ/mol]

    Induction                      -0.28000212 [mEh]      -0.17570399 [kcal/mol]      -0.73514547 [kJ/mol]
      Ind20,r                      -0.28584373 [mEh]      -0.17936965 [kcal/mol]      -0.75048261 [kJ/mol]
      Ind22                        -0.01004173 [mEh]      -0.00630128 [kcal/mol]      -0.02636456 [kJ/mol]
      Exch-Ind20,r                  0.06902033 [mEh]       0.04331091 [kcal/mol]       0.18121286 [kJ/mol]
      Exch-Ind22                    0.00242469 [mEh]       0.00152152 [kcal/mol]       0.00636603 [kJ/mol]
      delta HF,r (2)               -0.05556169 [mEh]      -0.03486549 [kcal/mol]      -0.14587719 [kJ/mol]

    Dispersion                     -0.85137127 [mEh]      -0.53424354 [kcal/mol]      -2.23527495 [kJ/mol]
      Disp20                       -0.80511312 [mEh]      -0.50521611 [kcal/mol]      -2.11382421 [kJ/mol]
      Disp21                       -0.03192249 [mEh]      -0.02003167 [kcal/mol]      -0.08381249 [kJ/mol]
      Disp22 (SDQ)                  0.03416068 [mEh]       0.02143615 [kcal/mol]       0.08968885 [kJ/mol]
      Disp22 (T)                   -0.10376998 [mEh]      -0.06511664 [kcal/mol]      -0.27244804 [kJ/mol]
      Est. Disp22 (T)              -0.12232075 [mEh]      -0.07675743 [kcal/mol]      -0.32115309 [kJ/mol]
      Exch-Disp20                   0.07382442 [mEh]       0.04632552 [kcal/mol]       0.19382598 [kJ/mol]

  Total HF                         -0.29248900 [mEh]      -0.18353962 [kcal/mol]      -0.76792977 [kJ/mol]
  Total SAPT0                      -1.02377771 [mEh]      -0.64243021 [kcal/mol]      -2.68792799 [kJ/mol]
  Total SAPT2                      -1.00036382 [mEh]      -0.62773777 [kcal/mol]      -2.62645484 [kJ/mol]
  Total SAPT2+                     -1.12044638 [mEh]      -0.70309072 [kcal/mol]      -2.94173156 [kJ/mol]

  Special recipe for scaled SAPT0 (see Manual):
    Electrostatics sSAPT0          -0.71297281 [mEh]      -0.44739719 [kcal/mol]      -1.87190986 [kJ/mol]
    Exchange sSAPT0                 0.69286889 [mEh]       0.43478180 [kcal/mol]       1.81912703 [kJ/mol]
    Induction sSAPT0               -0.27223182 [mEh]      -0.17082805 [kcal/mol]      -0.71474455 [kJ/mol]
    Dispersion sSAPT0              -0.73112477 [mEh]      -0.45878772 [kcal/mol]      -1.91956782 [kJ/mol]
  Total sSAPT0                     -1.02346051 [mEh]      -0.64223116 [kcal/mol]      -2.68709519 [kJ/mol]
  --------------------------------------------------------------------------------------------------------

*** Psi4 exiting successfully. Buy a developer a beer!
