                               Psi4 1.4a2.dev224

  ==> Input File <==

--------------------------------------------------------------------------
#Generated by lconvert.py for sapt job

memory 50 GB

molecule  {
0 1
  C      -2.024830    0.000030   -0.000010
  H      -2.390900   -0.618790   -0.813960
  H      -2.391450   -0.395610    0.942610
  H      -2.391760    1.014030   -0.128930
  H      -0.938770    0.000470    0.000290
--
0 1
  N       1.054250    0.000200    0.000080
  H       1.447290    0.376410   -0.852740
  H       1.447350    0.550170    0.752630
  H       1.445910   -0.927080    0.100440
units angstrom
no_reorient
symmetry c1
}

set {
scf_type DF
basis aug-cc-pvtz
freeze_core True
guess SAD
}
energy('sapt2+')
--------------------------------------------------------------------------

  //              Dimer HF             //
    Molecular point group: c1
  Charge       = 0
  Multiplicity = 1
  Basis Set: AUG-CC-PVTZ
    Blend: AUG-CC-PVTZ
  Basis Set: (AUG-CC-PVTZ AUX)
    Blend: AUG-CC-PVTZ-JKFIT
  @DF-RHF Final Energy:   -96.42423144934250
    Total Energy =                        -96.4242314493424999
  //            Monomer A HF           //
    Molecular point group: c1
  Multiplicity = 1
  Basis Set: AUG-CC-PVTZ
    Blend: AUG-CC-PVTZ
  Basis Set: (AUG-CC-PVTZ AUX)
    Blend: AUG-CC-PVTZ-JKFIT
  @DF-RHF Final Energy:   -40.21367778371641
    Total Energy =                        -40.2136777837164061
  //            Monomer B HF           //
    Molecular point group: c1

    Geometry (in Angstrom), charge = 0, multiplicity = 1:

       Center              X                  Y                   Z               Mass
    ------------   -----------------  -----------------  -----------------  -----------------
      Gh(C)          -1.621383673475    -0.000053413920    -0.000050622922    12.000000000000
      Gh(H)          -1.987453673475    -0.618873413920    -0.814000622922     1.007825032230
      Gh(H)          -1.988003673475    -0.395693413920     0.942569377078     1.007825032230
      Gh(H)          -1.988313673475     1.013946586080    -0.128970622922     1.007825032230
      Gh(H)          -0.535323673475     0.000386586080     0.000249377078     1.007825032230
         N            1.457696326525     0.000116586080     0.000039377078    14.003074004430
         H            1.850736326525     0.376326586080    -0.852780622922     1.007825032230
         H            1.850796326525     0.550086586080     0.752589377078     1.007825032230
         H            1.849356326525    -0.927163413920     0.100399377078     1.007825032230

  Charge       = 0
  Multiplicity = 1
  Basis Set: AUG-CC-PVTZ
    Blend: AUG-CC-PVTZ
  Basis Set: (AUG-CC-PVTZ AUX)
    Blend: AUG-CC-PVTZ-JKFIT

    Orbital Energies [Eh]
    ---------------------

    Doubly Occupied:

       1A    -15.542110     2A     -1.144247     3A     -0.627758
       4A     -0.627738     5A     -0.431942

  @DF-RHF Final Energy:   -56.22028256376706

   => Energetics <=

    Nuclear Repulsion Energy =             11.9684874280868812
    One-Electron Energy =                 -99.6299483425736270
    Two-Electron Energy =                  31.4411783507196922
    Total Energy =                        -56.2202825637670571

  Dipole Moment: [D]
     X:     1.6565      Y:    -0.0016      Z:     0.0001     Total:     1.6565

    SAPT Results
  --------------------------------------------------------------------------------------------------------
    Electrostatics                -12.15149426 [mEh]      -7.62517777 [kcal/mol]     -31.90374380 [kJ/mol]
      Elst10,r                    -11.58246495 [mEh]      -7.26810649 [kcal/mol]     -30.40975754 [kJ/mol]
      Elst12,r                     -0.56902931 [mEh]      -0.35707128 [kcal/mol]      -1.49398625 [kJ/mol]

    Exchange                       27.38456789 [mEh]      17.18407579 [kcal/mol]      71.89817309 [kJ/mol]
      Exch10                       26.20570899 [mEh]      16.44433066 [kcal/mol]      68.80307948 [kJ/mol]
      Exch10(S^2)                  25.67057388 [mEh]      16.10852831 [kcal/mol]      67.39808244 [kJ/mol]
      Exch11(S^2)                   0.63312550 [mEh]       0.39729225 [kcal/mol]       1.66227078 [kJ/mol]
      Exch12(S^2)                   0.54573339 [mEh]       0.34245287 [kcal/mol]       1.43282283 [kJ/mol]

    Induction                      -5.02085616 [mEh]      -3.15063481 [kcal/mol]     -13.18225603 [kJ/mol]
      Ind20,r                      -7.64202033 [mEh]      -4.79544016 [kcal/mol]     -20.06412161 [kJ/mol]
      Ind22                        -0.41973229 [mEh]      -0.26338599 [kcal/mol]      -1.10200698 [kJ/mol]
      Exch-Ind20,r                  5.33866178 [mEh]       3.35006085 [kcal/mol]      14.01665458 [kJ/mol]
      Exch-Ind22                    0.29322203 [mEh]       0.18399960 [kcal/mol]       0.76985434 [kJ/mol]
      delta HF,r (2)               -2.59098735 [mEh]      -1.62586911 [kcal/mol]      -6.80263636 [kJ/mol]

    Dispersion                     -6.54584589 [mEh]      -4.10758031 [kcal/mol]     -17.18611603 [kJ/mol]
      Disp20                       -7.74687271 [mEh]      -4.86123602 [kcal/mol]     -20.33941149 [kJ/mol]
      Disp21                        0.03367568 [mEh]       0.02113181 [kcal/mol]       0.08841550 [kJ/mol]
      Disp22 (SDQ)                  0.37787662 [mEh]       0.23712116 [kcal/mol]       0.99211494 [kJ/mol]
      Disp22 (T)                   -0.85146403 [mEh]      -0.53430175 [kcal/mol]      -2.23551851 [kJ/mol]
      Est. Disp22 (T)              -1.00291448 [mEh]      -0.62933833 [kcal/mol]      -2.63315159 [kJ/mol]
      Exch-Disp20                   1.79238898 [mEh]       1.12474107 [kcal/mol]       4.70591662 [kJ/mol]

  Total HF                          9.72889814 [mEh]       6.10497575 [kcal/mol]      25.54321855 [kJ/mol]
  Total SAPT0                       3.77441441 [mEh]       2.36848080 [kcal/mol]       9.90972368 [kJ/mol]
  Total SAPT2                       4.25773374 [mEh]       2.67176826 [kcal/mol]      11.17867840 [kJ/mol]
  Total SAPT2+                      3.66637157 [mEh]       2.30068290 [kcal/mol]       9.62605724 [kJ/mol]

  Special recipe for scaled SAPT0 (see Manual):
    Electrostatics sSAPT0         -11.58246495 [mEh]      -7.26810649 [kcal/mol]     -30.40975754 [kJ/mol]
    Exchange sSAPT0                26.20570899 [mEh]      16.44433066 [kcal/mol]      68.80307948 [kJ/mol]
    Induction sSAPT0               -4.55346436 [mEh]      -2.85734202 [kcal/mol]     -11.95511902 [kJ/mol]
    Dispersion sSAPT0              -5.84003701 [mEh]      -3.66467855 [kcal/mol]     -15.33301505 [kJ/mol]
  Total sSAPT0                      4.22974268 [mEh]       2.65420360 [kcal/mol]      11.10518787 [kJ/mol]
  --------------------------------------------------------------------------------------------------------

*** Psi4 exiting successfully. Buy a developer a beer!
