                               Psi4 1.4a2.dev224

  ==> Input File <==

--------------------------------------------------------------------------
#Generated by lconvert.py for sapt job

memory 50 GB

molecule  {
0 1
  C      -2.024830    0.000030   -0.000010
  H      -2.390900   -0.618790   -0.813960
  H      -2.391450   -0.395610    0.942610
  H      -2.391760    1.014030   -0.128930
  H      -0.938770    0.000470    0.000290
--
0 1
  N       2.762560   -0.000030   -0.000100
  H       3.155600    0.376180   -0.852920
  H       3.155650    0.549940    0.752460
  H       3.154220   -0.927310    0.100270
units angstrom
no_reorient
symmetry c1
}

set {
scf_type DF
basis aug-cc-pvtz
freeze_core True
guess SAD
}
energy('sapt2+')
--------------------------------------------------------------------------

  //              Dimer HF             //
    Molecular point group: c1
  Charge       = 0
  Multiplicity = 1
  Basis Set: AUG-CC-PVTZ
    Blend: AUG-CC-PVTZ
  Basis Set: (AUG-CC-PVTZ AUX)
    Blend: AUG-CC-PVTZ-JKFIT
  @DF-RHF Final Energy:   -96.43417283790353
    Total Energy =                        -96.4341728379035317
  //            Monomer A HF           //
    Molecular point group: c1
  Multiplicity = 1
  Basis Set: AUG-CC-PVTZ
    Blend: AUG-CC-PVTZ
  Basis Set: (AUG-CC-PVTZ AUX)
    Blend: AUG-CC-PVTZ-JKFIT
  @DF-RHF Final Energy:   -40.21365782966483
    Total Energy =                        -40.2136578296648324
  //            Monomer B HF           //
    Molecular point group: c1

    Geometry (in Angstrom), charge = 0, multiplicity = 1:

       Center              X                  Y                   Z               Mass
    ------------   -----------------  -----------------  -----------------  -----------------
      Gh(C)          -2.501253800969     0.000065048303     0.000041476909    12.000000000000
      Gh(H)          -2.867323800969    -0.618754951697    -0.813908523091     1.007825032230
      Gh(H)          -2.867873800969    -0.395574951697     0.942661476909     1.007825032230
      Gh(H)          -2.868183800969     1.014065048303    -0.128878523091     1.007825032230
      Gh(H)          -1.415193800969     0.000505048303     0.000341476909     1.007825032230
         N            2.286136199031     0.000005048303    -0.000048523091    14.003074004430
         H            2.679176199031     0.376215048303    -0.852868523091     1.007825032230
         H            2.679226199031     0.549975048303     0.752511476909     1.007825032230
         H            2.677796199031    -0.927274951697     0.100321476909     1.007825032230

  Charge       = 0
  Multiplicity = 1
  Basis Set: AUG-CC-PVTZ
    Blend: AUG-CC-PVTZ
  Basis Set: (AUG-CC-PVTZ AUX)
    Blend: AUG-CC-PVTZ-JKFIT

    Orbital Energies [Eh]
    ---------------------

    Doubly Occupied:

       1A    -15.542148     2A     -1.144260     3A     -0.627775
       4A     -0.627756     5A     -0.431944

  @DF-RHF Final Energy:   -56.22024587957622

   => Energetics <=

    Nuclear Repulsion Energy =             11.9684677604453871
    One-Electron Energy =                 -99.6296573654537809
    Two-Electron Energy =                  31.4409437254321702
    Total Energy =                        -56.2202458795762183

  Dipole Moment: [D]
     X:     1.6565      Y:    -0.0016      Z:     0.0001     Total:     1.6565

    SAPT Results
  --------------------------------------------------------------------------------------------------------
    Electrostatics                 -0.30082366 [mEh]      -0.18876969 [kcal/mol]      -0.78981240 [kJ/mol]
      Elst10,r                     -0.28438921 [mEh]      -0.17845692 [kcal/mol]      -0.74666376 [kJ/mol]
      Elst12,r                     -0.01643445 [mEh]      -0.01031277 [kcal/mol]      -0.04314864 [kJ/mol]

    Exchange                        0.12620462 [mEh]       0.07919460 [kcal/mol]       0.33135019 [kJ/mol]
      Exch10                        0.10759358 [mEh]       0.06751599 [kcal/mol]       0.28248690 [kJ/mol]
      Exch10(S^2)                   0.10757939 [mEh]       0.06750709 [kcal/mol]       0.28244964 [kJ/mol]
      Exch11(S^2)                   0.00007743 [mEh]       0.00004859 [kcal/mol]       0.00020330 [kJ/mol]
      Exch12(S^2)                   0.01853361 [mEh]       0.01163002 [kcal/mol]       0.04866000 [kJ/mol]

    Induction                      -0.09289307 [mEh]      -0.05829128 [kcal/mol]      -0.24389073 [kJ/mol]
      Ind20,r                      -0.09427634 [mEh]      -0.05915930 [kcal/mol]      -0.24752250 [kJ/mol]
      Ind22                        -0.00061545 [mEh]      -0.00038620 [kcal/mol]      -0.00161585 [kJ/mol]
      Exch-Ind20,r                  0.00848730 [mEh]       0.00532586 [kcal/mol]       0.02228341 [kJ/mol]
      Exch-Ind22                    0.00005541 [mEh]       0.00003477 [kcal/mol]       0.00014547 [kJ/mol]
      delta HF,r (2)               -0.00654399 [mEh]      -0.00410642 [kcal/mol]      -0.01718126 [kJ/mol]

    Dispersion                     -0.34128182 [mEh]      -0.21415758 [kcal/mol]      -0.89603531 [kJ/mol]
      Disp20                       -0.30888658 [mEh]      -0.19382926 [kcal/mol]      -0.81098161 [kJ/mol]
      Disp21                       -0.01032595 [mEh]      -0.00647963 [kcal/mol]      -0.02711078 [kJ/mol]
      Disp22 (SDQ)                  0.01291722 [mEh]       0.00810568 [kcal/mol]       0.03391415 [kJ/mol]
      Disp22 (T)                   -0.04233227 [mEh]      -0.02656390 [kcal/mol]      -0.11114337 [kJ/mol]
      Est. Disp22 (T)              -0.04820442 [mEh]      -0.03024873 [kcal/mol]      -0.12656068 [kJ/mol]
      Exch-Disp20                   0.01321791 [mEh]       0.00829436 [kcal/mol]       0.03470361 [kJ/mol]

  Total HF                         -0.26912866 [mEh]      -0.16888079 [kcal/mol]      -0.70659721 [kJ/mol]
  Total SAPT0                      -0.56479734 [mEh]      -0.35441568 [kcal/mol]      -1.48287520 [kJ/mol]
  Total SAPT2                      -0.56318078 [mEh]      -0.35340128 [kcal/mol]      -1.47863094 [kJ/mol]
  Total SAPT2+                     -0.60879393 [mEh]      -0.38202396 [kcal/mol]      -1.59838825 [kJ/mol]

  Special recipe for scaled SAPT0 (see Manual):
    Electrostatics sSAPT0          -0.28438921 [mEh]      -0.17845692 [kcal/mol]      -0.74666376 [kJ/mol]
    Exchange sSAPT0                 0.10759358 [mEh]       0.06751599 [kcal/mol]       0.28248690 [kJ/mol]
    Induction sSAPT0               -0.09232967 [mEh]      -0.05793775 [kcal/mol]      -0.24241153 [kJ/mol]
    Dispersion sSAPT0              -0.29566344 [mEh]      -0.18553161 [kcal/mol]      -0.77626426 [kJ/mol]
  Total sSAPT0                     -0.56478875 [mEh]      -0.35441029 [kcal/mol]      -1.48285265 [kJ/mol]
  --------------------------------------------------------------------------------------------------------

*** Psi4 exiting successfully. Buy a developer a beer!
