                               Psi4 1.4a2.dev224

  ==> Input File <==

--------------------------------------------------------------------------
#Generated by lconvert.py for sapt job

memory 50 GB

molecule  {
0 1
  C       1.433270    0.673520    0.000070
  H       2.314590    1.298680   -0.000900
  H       0.472720    1.168200    0.001070
  C       1.527250   -0.655290    0.000050
  H       0.645880   -1.280300    0.001020
  H       2.487500   -1.150700   -0.000950
--
0 1
  C      -2.217100   -0.003830    0.041020
  H      -2.507670    1.042230    0.040890
  H      -1.627100   -0.215230   -0.845510
  H      -1.628040   -0.215270    0.928180
  H      -3.107270   -0.624980    0.040550
units angstrom
no_reorient
symmetry c1
}

set {
scf_type DF
basis aug-cc-pvtz
freeze_core True
guess SAD
}
energy('sapt2+')
--------------------------------------------------------------------------

  //              Dimer HF             //
    Molecular point group: c1
  Charge       = 0
  Multiplicity = 1
  Basis Set: AUG-CC-PVTZ
    Blend: AUG-CC-PVTZ
  Basis Set: (AUG-CC-PVTZ AUX)
    Blend: AUG-CC-PVTZ-JKFIT
  @DF-RHF Final Energy:  -118.27723595779763
    Total Energy =                       -118.2772359577976289
  //            Monomer A HF           //
    Molecular point group: c1
  Multiplicity = 1
  Basis Set: AUG-CC-PVTZ
    Blend: AUG-CC-PVTZ
  Basis Set: (AUG-CC-PVTZ AUX)
    Blend: AUG-CC-PVTZ-JKFIT
  @DF-RHF Final Energy:   -78.06476160058496
    Total Energy =                        -78.0647616005849585
  //            Monomer B HF           //
    Molecular point group: c1

    Geometry (in Angstrom), charge = 0, multiplicity = 1:

       Center              X                  Y                   Z               Mass
    ------------   -----------------  -----------------  -----------------  -----------------
      Gh(C)           1.298267279022     0.669080700473    -0.014893166953    12.000000000000
      Gh(H)           2.179587279022     1.294240700473    -0.015863166953     1.007825032230
      Gh(H)           0.337717279022     1.163760700473    -0.013893166953     1.007825032230
      Gh(C)           1.392247279022    -0.659729299527    -0.014913166953    12.000000000000
      Gh(H)           0.510877279022    -1.284739299527    -0.013943166953     1.007825032230
      Gh(H)           2.352497279022    -1.155139299527    -0.015913166953     1.007825032230
         C           -2.352102720978    -0.008269299527     0.026056833047    12.000000000000
         H           -2.642672720978     1.037790700473     0.025926833047     1.007825032230
         H           -1.762102720978    -0.219669299527    -0.860473166953     1.007825032230
         H           -1.763042720978    -0.219709299527     0.913216833047     1.007825032230
         H           -3.242272720978    -0.629419299527     0.025586833047     1.007825032230

  Charge       = 0
  Multiplicity = 1
  Basis Set: AUG-CC-PVTZ
    Blend: AUG-CC-PVTZ
  Basis Set: (AUG-CC-PVTZ AUX)
    Blend: AUG-CC-PVTZ-JKFIT

    Orbital Energies [Eh]
    ---------------------

    Doubly Occupied:

       1A    -11.205142     2A     -0.944162     3A     -0.545739
       4A     -0.545708     5A     -0.545432

  @DF-RHF Final Energy:   -40.21368935237288

   => Energetics <=

    Nuclear Repulsion Energy =             13.4894581142527219
    One-Electron Energy =                 -79.8339340750258657
    Two-Electron Energy =                  26.1307866084002569
    Total Energy =                        -40.2136893523728816

  Dipole Moment: [D]
     X:    -0.0009      Y:     0.0005      Z:     0.0000     Total:     0.0010

    SAPT Results
  --------------------------------------------------------------------------------------------------------
    Electrostatics                 -1.05792863 [mEh]      -0.66386024 [kcal/mol]      -2.77759123 [kJ/mol]
      Elst10,r                     -0.95205807 [mEh]      -0.59742546 [kcal/mol]      -2.49962811 [kJ/mol]
      Elst12,r                     -0.10587056 [mEh]      -0.06643478 [kcal/mol]      -0.27796312 [kJ/mol]

    Exchange                        2.58019684 [mEh]       1.61909796 [kcal/mol]       6.77430586 [kJ/mol]
      Exch10                        2.37444539 [mEh]       1.48998697 [kcal/mol]       6.23410550 [kJ/mol]
      Exch10(S^2)                   2.37140336 [mEh]       1.48807808 [kcal/mol]       6.22611868 [kJ/mol]
      Exch11(S^2)                   0.06812380 [mEh]       0.04274833 [kcal/mol]       0.17885902 [kJ/mol]
      Exch12(S^2)                   0.13762765 [mEh]       0.08636265 [kcal/mol]       0.36134135 [kJ/mol]

    Induction                      -0.21304698 [mEh]      -0.13368900 [kcal/mol]      -0.55935478 [kJ/mol]
      Ind20,r                      -0.33659756 [mEh]      -0.21121816 [kcal/mol]      -0.88373678 [kJ/mol]
      Ind22                        -0.03372450 [mEh]      -0.02116245 [kcal/mol]      -0.08854367 [kJ/mol]
      Exch-Ind20,r                  0.28015787 [mEh]       0.17580172 [kcal/mol]       0.73555439 [kJ/mol]
      Exch-Ind22                    0.02806968 [mEh]       0.01761399 [kcal/mol]       0.07369693 [kJ/mol]
      delta HF,r (2)               -0.15095247 [mEh]      -0.09472410 [kcal/mol]      -0.39632565 [kJ/mol]

    Dispersion                     -2.86826853 [mEh]      -1.79986568 [kcal/mol]      -7.53063799 [kJ/mol]
      Disp20                       -2.95457198 [mEh]      -1.85402191 [kcal/mol]      -7.75722766 [kJ/mol]
      Disp21                        0.01656908 [mEh]       0.01039726 [kcal/mol]       0.04350212 [kJ/mol]
      Disp22 (SDQ)                  0.22560236 [mEh]       0.14156762 [kcal/mol]       0.59231891 [kJ/mol]
      Disp22 (T)                   -0.36302400 [mEh]      -0.22780100 [kcal/mol]      -0.95311938 [kJ/mol]
      Est. Disp22 (T)              -0.40716745 [mEh]      -0.25550143 [kcal/mol]      -1.06901798 [kJ/mol]
      Exch-Disp20                   0.25129945 [mEh]       0.15769279 [kcal/mol]       0.65978662 [kJ/mol]

  Total HF                          1.21499516 [mEh]       0.76242097 [kcal/mol]       3.18996935 [kJ/mol]
  Total SAPT0                      -1.48827737 [mEh]      -0.93390815 [kcal/mol]      -3.90747169 [kJ/mol]
  Total SAPT2                      -1.39405130 [mEh]      -0.87478040 [kcal/mol]      -3.66008119 [kJ/mol]
  Total SAPT2+                     -1.55904731 [mEh]      -0.97831695 [kcal/mol]      -4.09327814 [kJ/mol]

  Special recipe for scaled SAPT0 (see Manual):
    Electrostatics sSAPT0          -0.95205807 [mEh]      -0.59742546 [kcal/mol]      -2.49962811 [kJ/mol]
    Exchange sSAPT0                 2.37444539 [mEh]       1.48998697 [kcal/mol]       6.23410550 [kJ/mol]
    Induction sSAPT0               -0.20631262 [mEh]      -0.12946312 [kcal/mol]      -0.54167371 [kJ/mol]
    Dispersion sSAPT0              -2.70230419 [mEh]      -1.69572148 [kcal/mol]      -7.09489868 [kJ/mol]
  Total sSAPT0                     -1.48622949 [mEh]      -0.93262309 [kcal/mol]      -3.90209500 [kJ/mol]
  --------------------------------------------------------------------------------------------------------

*** Psi4 exiting successfully. Buy a developer a beer!
