                               Psi4 1.4a2.dev224

  ==> Input File <==

--------------------------------------------------------------------------
#Generated by lconvert.py for sapt job

memory 50 GB

molecule  {
0 1
  C       1.433270    0.673520    0.000070
  H       2.314590    1.298680   -0.000900
  H       0.472720    1.168200    0.001070
  C       1.527250   -0.655290    0.000050
  H       0.645880   -1.280300    0.001020
  H       2.487500   -1.150700   -0.000950
--
0 1
  C      -3.393720   -0.088770   -0.279160
  H      -3.684290    0.957280   -0.279290
  H      -2.803710   -0.300180   -1.165690
  H      -2.804660   -0.300210    0.608000
  H      -4.283880   -0.709920   -0.279640
units angstrom
no_reorient
symmetry c1
}

set {
scf_type DF
basis aug-cc-pvtz
freeze_core True
guess SAD
}
energy('sapt2+')
--------------------------------------------------------------------------

  //              Dimer HF             //
    Molecular point group: c1
  Charge       = 0
  Multiplicity = 1
  Basis Set: AUG-CC-PVTZ
    Blend: AUG-CC-PVTZ
  Basis Set: (AUG-CC-PVTZ AUX)
    Blend: AUG-CC-PVTZ-JKFIT
  @DF-RHF Final Energy:  -118.27845691362666
    Total Energy =                       -118.2784569136266555
  //            Monomer A HF           //
    Molecular point group: c1
  Multiplicity = 1
  Basis Set: AUG-CC-PVTZ
    Blend: AUG-CC-PVTZ
  Basis Set: (AUG-CC-PVTZ AUX)
    Blend: AUG-CC-PVTZ-JKFIT
  @DF-RHF Final Energy:   -78.06474699149503
    Total Energy =                        -78.0647469914950278
  //            Monomer B HF           //
    Molecular point group: c1

    Geometry (in Angstrom), charge = 0, multiplicity = 1:

       Center              X                  Y                   Z               Mass
    ------------   -----------------  -----------------  -----------------  -----------------
      Gh(C)           1.726356590383     0.699984886370     0.101598182252    12.000000000000
      Gh(H)           2.607676590383     1.325144886370     0.100628182252     1.007825032230
      Gh(H)           0.765806590383     1.194664886370     0.102598182252     1.007825032230
      Gh(C)           1.820336590383    -0.628825113630     0.101578182252    12.000000000000
      Gh(H)           0.938966590383    -1.253835113630     0.102548182252     1.007825032230
      Gh(H)           2.780586590383    -1.124235113630     0.100578182252     1.007825032230
         C           -3.100633409617    -0.062305113630    -0.177631817748    12.000000000000
         H           -3.391203409617     0.983744886370    -0.177761817748     1.007825032230
         H           -2.510623409617    -0.273715113630    -1.064161817748     1.007825032230
         H           -2.511573409617    -0.273745113630     0.709528182252     1.007825032230
         H           -3.990793409617    -0.683455113630    -0.178111817748     1.007825032230

  Charge       = 0
  Multiplicity = 1
  Basis Set: AUG-CC-PVTZ
    Blend: AUG-CC-PVTZ
  Basis Set: (AUG-CC-PVTZ AUX)
    Blend: AUG-CC-PVTZ-JKFIT

    Orbital Energies [Eh]
    ---------------------

    Doubly Occupied:

       1A    -11.205127     2A     -0.944163     3A     -0.545736
       4A     -0.545708     5A     -0.545435

  @DF-RHF Final Energy:   -40.21367717693676

   => Energetics <=

    Nuclear Repulsion Energy =             13.4894905793734363
    One-Electron Energy =                 -79.8340020969429816
    Two-Electron Energy =                  26.1308343406327808
    Total Energy =                        -40.2136771769367627

  Dipole Moment: [D]
     X:    -0.0008      Y:     0.0005      Z:     0.0000     Total:     0.0009

    SAPT Results
  --------------------------------------------------------------------------------------------------------
    Electrostatics                 -0.06865387 [mEh]      -0.04308096 [kcal/mol]      -0.18025072 [kJ/mol]
      Elst10,r                     -0.06673319 [mEh]      -0.04187571 [kcal/mol]      -0.17520797 [kJ/mol]
      Elst12,r                     -0.00192068 [mEh]      -0.00120525 [kcal/mol]      -0.00504275 [kJ/mol]

    Exchange                        0.04408815 [mEh]       0.02766573 [kcal/mol]       0.11575342 [kJ/mol]
      Exch10                        0.03862772 [mEh]       0.02423926 [kcal/mol]       0.10141706 [kJ/mol]
      Exch10(S^2)                   0.03862669 [mEh]       0.02423861 [kcal/mol]       0.10141436 [kJ/mol]
      Exch11(S^2)                   0.00057409 [mEh]       0.00036025 [kcal/mol]       0.00150727 [kJ/mol]
      Exch12(S^2)                   0.00488634 [mEh]       0.00306623 [kcal/mol]       0.01282909 [kJ/mol]

    Induction                      -0.00489124 [mEh]      -0.00306930 [kcal/mol]      -0.01284194 [kJ/mol]
      Ind20,r                      -0.00508732 [mEh]      -0.00319234 [kcal/mol]      -0.01335677 [kJ/mol]
      Ind22                        -0.00051670 [mEh]      -0.00032423 [kcal/mol]      -0.00135660 [kJ/mol]
      Exch-Ind20,r                  0.00261097 [mEh]       0.00163841 [kcal/mol]       0.00685509 [kJ/mol]
      Exch-Ind22                    0.00026519 [mEh]       0.00016641 [kcal/mol]       0.00069625 [kJ/mol]
      delta HF,r (2)               -0.00216337 [mEh]      -0.00135753 [kcal/mol]      -0.00567991 [kJ/mol]

    Dispersion                     -0.45027978 [mEh]      -0.28255482 [kcal/mol]      -1.18220939 [kJ/mol]
      Disp20                       -0.44033965 [mEh]      -0.27631730 [kcal/mol]      -1.15611158 [kJ/mol]
      Disp21                        0.01082144 [mEh]       0.00679056 [kcal/mol]       0.02841169 [kJ/mol]
      Disp22 (SDQ)                  0.03751889 [mEh]       0.02354346 [kcal/mol]       0.09850583 [kJ/mol]
      Disp22 (T)                   -0.06007854 [mEh]      -0.03769985 [kcal/mol]      -0.15773619 [kJ/mol]
      Est. Disp22 (T)              -0.06422788 [mEh]      -0.04030361 [kcal/mol]      -0.16863029 [kJ/mol]
      Exch-Disp20                   0.00594742 [mEh]       0.00373207 [kcal/mol]       0.01561496 [kJ/mol]

  Total HF                         -0.03274519 [mEh]      -0.02054792 [kcal/mol]      -0.08597250 [kJ/mol]
  Total SAPT0                      -0.46713742 [mEh]      -0.29313315 [kcal/mol]      -1.22646912 [kJ/mol]
  Total SAPT2                      -0.46384918 [mEh]      -0.29106976 [kcal/mol]      -1.21783586 [kJ/mol]
  Total SAPT2+                     -0.47973674 [mEh]      -0.30103935 [kcal/mol]      -1.25954863 [kJ/mol]

  Special recipe for scaled SAPT0 (see Manual):
    Electrostatics sSAPT0          -0.06673319 [mEh]      -0.04187571 [kcal/mol]      -0.17520797 [kJ/mol]
    Exchange sSAPT0                 0.03862772 [mEh]       0.02423926 [kcal/mol]       0.10141706 [kJ/mol]
    Induction sSAPT0               -0.00463951 [mEh]      -0.00291134 [kcal/mol]      -0.01218104 [kJ/mol]
    Dispersion sSAPT0              -0.43439175 [mEh]      -0.27258494 [kcal/mol]      -1.14049538 [kJ/mol]
  Total sSAPT0                     -0.46713673 [mEh]      -0.29313273 [kcal/mol]      -1.22646733 [kJ/mol]
  --------------------------------------------------------------------------------------------------------

*** Psi4 exiting successfully. Buy a developer a beer!
