                               Psi4 1.4a2.dev224

  ==> Input File <==

--------------------------------------------------------------------------
#Generated by lconvert.py for sapt job

memory 50 GB

molecule  {
0 1
  C       1.433270    0.673520    0.000070
  H       2.314590    1.298680   -0.000900
  H       0.472720    1.168200    0.001070
  C       1.527250   -0.655290    0.000050
  H       0.645880   -1.280300    0.001020
  H       2.487500   -1.150700   -0.000950
--
0 1
  C      -4.399960   -0.161410   -0.552980
  H      -4.690530    0.884640   -0.553110
  H      -3.809960   -0.372820   -1.439510
  H      -3.810910   -0.372850    0.334180
  H      -5.290130   -0.782570   -0.553460
units angstrom
no_reorient
symmetry c1
}

set {
scf_type DF
basis aug-cc-pvtz
freeze_core True
guess SAD
}
energy('sapt2+')
--------------------------------------------------------------------------

  //              Dimer HF             //
    Molecular point group: c1
  Charge       = 0
  Multiplicity = 1
  Basis Set: AUG-CC-PVTZ
    Blend: AUG-CC-PVTZ
  Basis Set: (AUG-CC-PVTZ AUX)
    Blend: AUG-CC-PVTZ-JKFIT
  @DF-RHF Final Energy:  -118.27842937106260
    Total Energy =                       -118.2784293710626002
  //            Monomer A HF           //
    Molecular point group: c1
  Multiplicity = 1
  Basis Set: AUG-CC-PVTZ
    Blend: AUG-CC-PVTZ
  Basis Set: (AUG-CC-PVTZ AUX)
    Blend: AUG-CC-PVTZ-JKFIT
  @DF-RHF Final Energy:   -78.06474059178774
    Total Energy =                        -78.0647405917877393
  //            Monomer B HF           //
    Molecular point group: c1

    Geometry (in Angstrom), charge = 0, multiplicity = 1:

       Center              X                  Y                   Z               Mass
    ------------   -----------------  -----------------  -----------------  -----------------
      Gh(C)           2.092457673435     0.726413733346     0.201222139432    12.000000000000
      Gh(H)           2.973777673435     1.351573733346     0.200252139432     1.007825032230
      Gh(H)           1.131907673435     1.221093733346     0.202222139432     1.007825032230
      Gh(C)           2.186437673435    -0.602396266654     0.201202139432    12.000000000000
      Gh(H)           1.305067673435    -1.227406266654     0.202172139432     1.007825032230
      Gh(H)           3.146687673435    -1.097806266654     0.200202139432     1.007825032230
         C           -3.740772326565    -0.108516266654    -0.351827860568    12.000000000000
         H           -4.031342326565     0.937533733346    -0.351957860568     1.007825032230
         H           -3.150772326565    -0.319926266654    -1.238357860568     1.007825032230
         H           -3.151722326565    -0.319956266654     0.535332139432     1.007825032230
         H           -4.630942326565    -0.729676266654    -0.352307860568     1.007825032230

  Charge       = 0
  Multiplicity = 1
  Basis Set: AUG-CC-PVTZ
    Blend: AUG-CC-PVTZ
  Basis Set: (AUG-CC-PVTZ AUX)
    Blend: AUG-CC-PVTZ-JKFIT

    Orbital Energies [Eh]
    ---------------------

    Doubly Occupied:

       1A    -11.205122     2A     -0.944163     3A     -0.545739
       4A     -0.545704     5A     -0.545434

  @DF-RHF Final Energy:   -40.21367271188769

   => Energetics <=

    Nuclear Repulsion Energy =             13.4894810490328290
    One-Electron Energy =                 -79.8339882950442359
    Two-Electron Energy =                  26.1308345341237143
    Total Energy =                        -40.2136727118876891

  Dipole Moment: [D]
     X:    -0.0007      Y:     0.0005      Z:     0.0000     Total:     0.0009

    SAPT Results
  --------------------------------------------------------------------------------------------------------
    Electrostatics                 -0.01650240 [mEh]      -0.01035541 [kcal/mol]      -0.04332704 [kJ/mol]
      Elst10,r                     -0.01675387 [mEh]      -0.01051321 [kcal/mol]      -0.04398729 [kJ/mol]
      Elst12,r                      0.00025148 [mEh]       0.00015780 [kcal/mol]       0.00066025 [kJ/mol]

    Exchange                        0.00112615 [mEh]       0.00070667 [kcal/mol]       0.00295670 [kJ/mol]
      Exch10                        0.00095264 [mEh]       0.00059779 [kcal/mol]       0.00250115 [kJ/mol]
      Exch10(S^2)                   0.00095264 [mEh]       0.00059779 [kcal/mol]       0.00250115 [kJ/mol]
      Exch11(S^2)                   0.00000116 [mEh]       0.00000073 [kcal/mol]       0.00000305 [kJ/mol]
      Exch12(S^2)                   0.00017235 [mEh]       0.00010815 [kcal/mol]       0.00045250 [kJ/mol]

    Induction                      -0.00027491 [mEh]      -0.00017251 [kcal/mol]      -0.00072178 [kJ/mol]
      Ind20,r                      -0.00047931 [mEh]      -0.00030077 [kcal/mol]      -0.00125844 [kJ/mol]
      Ind22                        -0.00000973 [mEh]      -0.00000610 [kcal/mol]      -0.00002554 [kJ/mol]
      Exch-Ind20,r                  0.00004758 [mEh]       0.00002986 [kcal/mol]       0.00012493 [kJ/mol]
      Exch-Ind22                    0.00000097 [mEh]       0.00000061 [kcal/mol]       0.00000254 [kJ/mol]
      delta HF,r (2)                0.00016558 [mEh]       0.00010390 [kcal/mol]       0.00043473 [kJ/mol]

    Dispersion                     -0.12513747 [mEh]      -0.07852495 [kcal/mol]      -0.32854839 [kJ/mol]
      Disp20                       -0.12354712 [mEh]      -0.07752699 [kcal/mol]      -0.32437292 [kJ/mol]
      Disp21                        0.00537095 [mEh]       0.00337032 [kcal/mol]       0.01410143 [kJ/mol]
      Disp22 (SDQ)                  0.01121076 [mEh]       0.00703486 [kcal/mol]       0.02943386 [kJ/mol]
      Disp22 (T)                   -0.01768312 [mEh]      -0.01109633 [kcal/mol]      -0.04642703 [kJ/mol]
      Est. Disp22 (T)              -0.01836750 [mEh]      -0.01152578 [kcal/mol]      -0.04822387 [kJ/mol]
      Exch-Disp20                   0.00019543 [mEh]       0.00012263 [kcal/mol]       0.00051310 [kJ/mol]

  Total HF                         -0.01606739 [mEh]      -0.01008244 [kcal/mol]      -0.04218492 [kJ/mol]
  Total SAPT0                      -0.13941908 [mEh]      -0.08748679 [kcal/mol]      -0.36604473 [kJ/mol]
  Total SAPT2                      -0.13900285 [mEh]      -0.08722561 [kcal/mol]      -0.36495194 [kJ/mol]
  Total SAPT2+                     -0.14078864 [mEh]      -0.08834620 [kcal/mol]      -0.36964051 [kJ/mol]

  Special recipe for scaled SAPT0 (see Manual):
    Electrostatics sSAPT0          -0.01675387 [mEh]      -0.01051321 [kcal/mol]      -0.04398729 [kJ/mol]
    Exchange sSAPT0                 0.00095264 [mEh]       0.00059779 [kcal/mol]       0.00250115 [kJ/mol]
    Induction sSAPT0               -0.00026615 [mEh]      -0.00016701 [kcal/mol]      -0.00069878 [kJ/mol]
    Dispersion sSAPT0              -0.12335169 [mEh]      -0.07740435 [kcal/mol]      -0.32385982 [kJ/mol]
  Total sSAPT0                     -0.13941908 [mEh]      -0.08748679 [kcal/mol]      -0.36604473 [kJ/mol]
  --------------------------------------------------------------------------------------------------------

*** Psi4 exiting successfully. Buy a developer a beer!
