                               Psi4 1.4a2.dev224

  ==> Input File <==

--------------------------------------------------------------------------
#Generated by lconvert.py for sapt job

memory 50 GB

molecule  {
0 1
  C       1.433270    0.673520    0.000070
  H       2.314590    1.298680   -0.000900
  H       0.472720    1.168200    0.001070
  C       1.527250   -0.655290    0.000050
  H       0.645880   -1.280300    0.001020
  H       2.487500   -1.150700   -0.000950
--
0 1
  C      -1.747450    0.030080    0.168830
  H      -2.038020    1.076130    0.168690
  H      -1.157440   -0.181330   -0.717710
  H      -1.158390   -0.181360    1.055990
  H      -2.637610   -0.591070    0.168350
units angstrom
no_reorient
symmetry c1
}

set {
scf_type DF
basis aug-cc-pvtz
freeze_core True
guess SAD
}
energy('sapt2+')
--------------------------------------------------------------------------

  //              Dimer HF             //
    Molecular point group: c1
  Charge       = 0
  Multiplicity = 1
  Basis Set: AUG-CC-PVTZ
    Blend: AUG-CC-PVTZ
  Basis Set: (AUG-CC-PVTZ AUX)
    Blend: AUG-CC-PVTZ-JKFIT
  @DF-RHF Final Energy:  -118.27212162734568
    Total Energy =                       -118.2721216273456832
  //            Monomer A HF           //
    Molecular point group: c1
  Multiplicity = 1
  Basis Set: AUG-CC-PVTZ
    Blend: AUG-CC-PVTZ
  Basis Set: (AUG-CC-PVTZ AUX)
    Blend: AUG-CC-PVTZ-JKFIT
  @DF-RHF Final Energy:   -78.06477418603410
    Total Energy =                        -78.0647741860341000
  //            Monomer B HF           //
    Molecular point group: c1

    Geometry (in Angstrom), charge = 0, multiplicity = 1:

       Center              X                  Y                   Z               Mass
    ------------   -----------------  -----------------  -----------------  -----------------
      Gh(C)           1.127394016482     0.656743679333    -0.061393605482    12.000000000000
      Gh(H)           2.008714016482     1.281903679333    -0.062363605482     1.007825032230
      Gh(H)           0.166844016482     1.151423679333    -0.060393605482     1.007825032230
      Gh(C)           1.221374016482    -0.672066320667    -0.061413605482    12.000000000000
      Gh(H)           0.340004016482    -1.297076320667    -0.060443605482     1.007825032230
      Gh(H)           2.181624016482    -1.167476320667    -0.062413605482     1.007825032230
         C           -2.053325983518     0.013303679333     0.107366394518    12.000000000000
         H           -2.343895983518     1.059353679333     0.107226394518     1.007825032230
         H           -1.463315983518    -0.198106320667    -0.779173605482     1.007825032230
         H           -1.464265983518    -0.198136320667     0.994526394518     1.007825032230
         H           -2.943485983518    -0.607846320667     0.106886394518     1.007825032230

  Charge       = 0
  Multiplicity = 1
  Basis Set: AUG-CC-PVTZ
    Blend: AUG-CC-PVTZ
  Basis Set: (AUG-CC-PVTZ AUX)
    Blend: AUG-CC-PVTZ-JKFIT

    Orbital Energies [Eh]
    ---------------------

    Doubly Occupied:

       1A    -11.205148     2A     -0.944161     3A     -0.545735
       4A     -0.545708     5A     -0.545435

  @DF-RHF Final Energy:   -40.21369564595922

   => Energetics <=

    Nuclear Repulsion Energy =             13.4894652156511583
    One-Electron Energy =                 -79.8339509263923333
    Two-Electron Energy =                  26.1307900647819444
    Total Energy =                        -40.2136956459592199

  Dipole Moment: [D]
     X:    -0.0009      Y:     0.0006      Z:     0.0000     Total:     0.0011

    SAPT Results
  --------------------------------------------------------------------------------------------------------
    Electrostatics                 -4.14362629 [mEh]      -2.60016475 [kcal/mol]     -10.87908932 [kJ/mol]
      Elst10,r                     -3.75964028 [mEh]      -2.35920989 [kcal/mol]      -9.87093420 [kJ/mol]
      Elst12,r                     -0.38398601 [mEh]      -0.24095486 [kcal/mol]      -1.00815512 [kJ/mol]

    Exchange                       11.77436385 [mEh]       7.38852487 [kcal/mol]      30.91358804 [kJ/mol]
      Exch10                       11.05971408 [mEh]       6.94007536 [kcal/mol]      29.03727532 [kJ/mol]
      Exch10(S^2)                  11.00204830 [mEh]       6.90388954 [kcal/mol]      28.88587384 [kJ/mol]
      Exch11(S^2)                   0.34927300 [mEh]       0.21917212 [kcal/mol]       0.91701613 [kJ/mol]
      Exch12(S^2)                   0.36537678 [mEh]       0.22927739 [kcal/mol]       0.95929659 [kJ/mol]

    Induction                      -0.97212682 [mEh]      -0.61001879 [kcal/mol]      -2.55231862 [kJ/mol]
      Ind20,r                      -1.97953393 [mEh]      -1.24217630 [kcal/mol]      -5.19726563 [kJ/mol]
      Ind22                        -0.15664120 [mEh]      -0.09829383 [kcal/mol]      -0.41126141 [kJ/mol]
      Exch-Ind20,r                  1.72353008 [mEh]       1.08153146 [kcal/mol]       4.52512761 [kJ/mol]
      Exch-Ind22                    0.13638352 [mEh]       0.08558195 [kcal/mol]       0.35807489 [kJ/mol]
      delta HF,r (2)               -0.69586530 [mEh]      -0.43666207 [kcal/mol]      -1.82699410 [kJ/mol]

    Dispersion                     -6.43592263 [mEh]      -4.03860243 [kcal/mol]     -16.89751255 [kJ/mol]
      Disp20                       -7.08686901 [mEh]      -4.44707744 [kcal/mol]     -18.60657202 [kJ/mol]
      Disp21                        0.07871570 [mEh]       0.04939485 [kcal/mol]       0.20666805 [kJ/mol]
      Disp22 (SDQ)                  0.51798884 [mEh]       0.32504290 [kcal/mol]       1.35997950 [kJ/mol]
      Disp22 (T)                   -0.81939214 [mEh]      -0.51417633 [kcal/mol]      -2.15131378 [kJ/mol]
      Est. Disp22 (T)              -0.92764745 [mEh]      -0.58210756 [kcal/mol]      -2.43553803 [kJ/mol]
      Exch-Disp20                   0.98188929 [mEh]       0.61614483 [kcal/mol]       2.57794996 [kJ/mol]

  Total HF                          6.34820465 [mEh]       3.98355856 [kcal/mol]      16.66720901 [kJ/mol]
  Total SAPT0                       0.24322492 [mEh]       0.15262594 [kcal/mol]       0.63858695 [kJ/mol]
  Total SAPT2                       0.55363102 [mEh]       0.34740871 [kcal/mol]       1.45355804 [kJ/mol]
  Total SAPT2+                      0.22268811 [mEh]       0.13973890 [kcal/mol]       0.58466755 [kJ/mol]

  Special recipe for scaled SAPT0 (see Manual):
    Electrostatics sSAPT0          -3.75964028 [mEh]      -2.35920989 [kcal/mol]      -9.87093420 [kJ/mol]
    Exchange sSAPT0                11.05971408 [mEh]       6.94007536 [kcal/mol]      29.03727532 [kJ/mol]
    Induction sSAPT0               -0.92462589 [mEh]      -0.58021151 [kcal/mol]      -2.42760495 [kJ/mol]
    Dispersion sSAPT0              -6.08945933 [mEh]      -3.82119342 [kcal/mol]     -15.98787328 [kJ/mol]
  Total sSAPT0                      0.28598857 [mEh]       0.17946054 [kcal/mol]       0.75086289 [kJ/mol]
  --------------------------------------------------------------------------------------------------------

*** Psi4 exiting successfully. Buy a developer a beer!
