                               Psi4 1.4a2.dev224

  ==> Input File <==

--------------------------------------------------------------------------
#Generated by lconvert.py for sapt job

memory 50 GB

molecule  {
0 1
  C       1.433270    0.673520    0.000070
  H       2.314590    1.298680   -0.000900
  H       0.472720    1.168200    0.001070
  C       1.527250   -0.655290    0.000050
  H       0.645880   -1.280300    0.001020
  H       2.487500   -1.150700   -0.000950
--
0 1
  C      -5.406210   -0.234060   -0.826800
  H      -5.696780    0.811990   -0.826930
  H      -4.816210   -0.445460   -1.713340
  H      -4.817150   -0.445500    0.060360
  H      -6.296380   -0.855210   -0.827280
units angstrom
no_reorient
symmetry c1
}

set {
scf_type DF
basis aug-cc-pvtz
freeze_core True
guess SAD
}
energy('sapt2+')
--------------------------------------------------------------------------

  //              Dimer HF             //
    Molecular point group: c1
  Charge       = 0
  Multiplicity = 1
  Basis Set: AUG-CC-PVTZ
    Blend: AUG-CC-PVTZ
  Basis Set: (AUG-CC-PVTZ AUX)
    Blend: AUG-CC-PVTZ-JKFIT
  @DF-RHF Final Energy:  -118.27841386011659
    Total Energy =                       -118.2784138601165864
  //            Monomer A HF           //
    Molecular point group: c1
  Multiplicity = 1
  Basis Set: AUG-CC-PVTZ
    Blend: AUG-CC-PVTZ
  Basis Set: (AUG-CC-PVTZ AUX)
    Blend: AUG-CC-PVTZ-JKFIT
  @DF-RHF Final Energy:   -78.06473793664117
    Total Energy =                        -78.0647379366411656
  //            Monomer B HF           //
    Molecular point group: c1

    Geometry (in Angstrom), charge = 0, multiplicity = 1:

       Center              X                  Y                   Z               Mass
    ------------   -----------------  -----------------  -----------------  -----------------
      Gh(C)           2.458561479885     0.752845532447     0.300846325337    12.000000000000
      Gh(H)           3.339881479885     1.378005532447     0.299876325337     1.007825032230
      Gh(H)           1.498011479885     1.247525532447     0.301846325337     1.007825032230
      Gh(C)           2.552541479885    -0.575964467553     0.300826325337    12.000000000000
      Gh(H)           1.671171479885    -1.200974467553     0.301796325337     1.007825032230
      Gh(H)           3.512791479885    -1.071374467553     0.299826325337     1.007825032230
         C           -4.380918520115    -0.154734467553    -0.526023674663    12.000000000000
         H           -4.671488520115     0.891315532447    -0.526153674663     1.007825032230
         H           -3.790918520115    -0.366134467553    -1.412563674663     1.007825032230
         H           -3.791858520115    -0.366174467553     0.361136325337     1.007825032230
         H           -5.271088520115    -0.775884467553    -0.526503674663     1.007825032230

  Charge       = 0
  Multiplicity = 1
  Basis Set: AUG-CC-PVTZ
    Blend: AUG-CC-PVTZ
  Basis Set: (AUG-CC-PVTZ AUX)
    Blend: AUG-CC-PVTZ-JKFIT

    Orbital Energies [Eh]
    ---------------------

    Doubly Occupied:

       1A    -11.205120     2A     -0.944163     3A     -0.545738
       4A     -0.545705     5A     -0.545432

  @DF-RHF Final Energy:   -40.21367031838652

   => Energetics <=

    Nuclear Repulsion Energy =             13.4894626709477876
    One-Electron Energy =                 -79.8339518690366958
    Two-Electron Energy =                  26.1308188797023924
    Total Energy =                        -40.2136703183865194

  Dipole Moment: [D]
     X:    -0.0007      Y:     0.0005      Z:     0.0000     Total:     0.0009

    SAPT Results
  --------------------------------------------------------------------------------------------------------
    Electrostatics                 -0.00545127 [mEh]      -0.00342073 [kcal/mol]      -0.01431231 [kJ/mol]
      Elst10,r                     -0.00558329 [mEh]      -0.00350357 [kcal/mol]      -0.01465893 [kJ/mol]
      Elst12,r                      0.00013202 [mEh]       0.00008284 [kcal/mol]       0.00034661 [kJ/mol]

    Exchange                        0.00002599 [mEh]       0.00001631 [kcal/mol]       0.00006824 [kJ/mol]
      Exch10                        0.00002196 [mEh]       0.00001378 [kcal/mol]       0.00005764 [kJ/mol]
      Exch10(S^2)                   0.00002196 [mEh]       0.00001378 [kcal/mol]       0.00005764 [kJ/mol]
      Exch11(S^2)                  -0.00000023 [mEh]      -0.00000015 [kcal/mol]      -0.00000061 [kJ/mol]
      Exch12(S^2)                   0.00000427 [mEh]       0.00000268 [kcal/mol]       0.00001120 [kJ/mol]

    Induction                      -0.00004307 [mEh]      -0.00002703 [kcal/mol]      -0.00011307 [kJ/mol]
      Ind20,r                      -0.00012131 [mEh]      -0.00007613 [kcal/mol]      -0.00031851 [kJ/mol]
      Ind22                         0.00000069 [mEh]       0.00000043 [kcal/mol]       0.00000182 [kJ/mol]
      Exch-Ind20,r                  0.00000095 [mEh]       0.00000059 [kcal/mol]       0.00000249 [kJ/mol]
      Exch-Ind22                   -0.00000001 [mEh]      -0.00000000 [kcal/mol]      -0.00000001 [kJ/mol]
      delta HF,r (2)                0.00007661 [mEh]       0.00004808 [kcal/mol]       0.00020115 [kJ/mol]

    Dispersion                     -0.04392194 [mEh]      -0.02756143 [kcal/mol]      -0.11531704 [kJ/mol]
      Disp20                       -0.04386427 [mEh]      -0.02752525 [kcal/mol]      -0.11516563 [kJ/mol]
      Disp21                        0.00241293 [mEh]       0.00151414 [kcal/mol]       0.00633516 [kJ/mol]
      Disp22 (SDQ)                  0.00410772 [mEh]       0.00257763 [kcal/mol]       0.01078482 [kJ/mol]
      Disp22 (T)                   -0.00640876 [mEh]      -0.00402156 [kcal/mol]      -0.01682620 [kJ/mol]
      Est. Disp22 (T)              -0.00658388 [mEh]      -0.00413145 [kcal/mol]      -0.01728597 [kJ/mol]
      Exch-Disp20                   0.00000555 [mEh]       0.00000348 [kcal/mol]       0.00001458 [kJ/mol]

  Total HF                         -0.00560509 [mEh]      -0.00351725 [kcal/mol]      -0.01471616 [kJ/mol]
  Total SAPT0                      -0.04946381 [mEh]      -0.03103901 [kcal/mol]      -0.12986721 [kJ/mol]
  Total SAPT2                      -0.04932707 [mEh]      -0.03095320 [kcal/mol]      -0.12950820 [kJ/mol]
  Total SAPT2+                     -0.04939029 [mEh]      -0.03099288 [kcal/mol]      -0.12967419 [kJ/mol]

  Special recipe for scaled SAPT0 (see Manual):
    Electrostatics sSAPT0          -0.00558329 [mEh]      -0.00350357 [kcal/mol]      -0.01465893 [kJ/mol]
    Exchange sSAPT0                 0.00002196 [mEh]       0.00001378 [kcal/mol]       0.00005764 [kJ/mol]
    Induction sSAPT0               -0.00004375 [mEh]      -0.00002746 [kcal/mol]      -0.00011488 [kJ/mol]
    Dispersion sSAPT0              -0.04385872 [mEh]      -0.02752176 [kcal/mol]      -0.11515105 [kJ/mol]
  Total sSAPT0                     -0.04946381 [mEh]      -0.03103901 [kcal/mol]      -0.12986721 [kJ/mol]
  --------------------------------------------------------------------------------------------------------

*** Psi4 exiting successfully. Buy a developer a beer!
