                               Psi4 1.4a2.dev224

  ==> Input File <==

--------------------------------------------------------------------------
#Generated by lconvert.py for sapt job

memory 50 GB

molecule  {
0 1
  C       1.433270    0.673520    0.000070
  H       2.314590    1.298680   -0.000900
  H       0.472720    1.168200    0.001070
  C       1.527250   -0.655290    0.000050
  H       0.645880   -1.280300    0.001020
  H       2.487500   -1.150700   -0.000950
--
0 1
  C      -2.368210   -0.014730   -0.000100
  H      -2.658780    1.031320   -0.000230
  H      -1.778210   -0.226140   -0.886630
  H      -1.779150   -0.226180    0.887060
  H      -3.258380   -0.635890   -0.000570
units angstrom
no_reorient
symmetry c1
}

set {
scf_type DF
basis aug-cc-pvtz
freeze_core True
guess SAD
}
energy('sapt2+')
--------------------------------------------------------------------------

  //              Dimer HF             //
    Molecular point group: c1
  Charge       = 0
  Multiplicity = 1
  Basis Set: AUG-CC-PVTZ
    Blend: AUG-CC-PVTZ
  Basis Set: (AUG-CC-PVTZ AUX)
    Blend: AUG-CC-PVTZ-JKFIT
  @DF-RHF Final Energy:  -118.27777343691544
    Total Energy =                       -118.2777734369154388
  //            Monomer A HF           //
    Molecular point group: c1
  Multiplicity = 1
  Basis Set: AUG-CC-PVTZ
    Blend: AUG-CC-PVTZ
  Basis Set: (AUG-CC-PVTZ AUX)
    Blend: AUG-CC-PVTZ-JKFIT
  @DF-RHF Final Energy:   -78.06475876272528
    Total Energy =                        -78.0647587627252619
  //            Monomer B HF           //
    Molecular point group: c1

    Geometry (in Angstrom), charge = 0, multiplicity = 1:

       Center              X                  Y                   Z               Mass
    ------------   -----------------  -----------------  -----------------  -----------------
      Gh(C)           1.353245644990     0.673047363434     0.000067526638    12.000000000000
      Gh(H)           2.234565644990     1.298207363434    -0.000902473362     1.007825032230
      Gh(H)           0.392695644990     1.167727363434     0.001067526638     1.007825032230
      Gh(C)           1.447225644990    -0.655762636566     0.000047526638    12.000000000000
      Gh(H)           0.565855644990    -1.280772636566     0.001017526638     1.007825032230
      Gh(H)           2.407475644990    -1.151172636566    -0.000952473362     1.007825032230
         C           -2.448234355010    -0.015202636566    -0.000102473362    12.000000000000
         H           -2.738804355010     1.030847363434    -0.000232473362     1.007825032230
         H           -1.858234355010    -0.226612636566    -0.886632473362     1.007825032230
         H           -1.859174355010    -0.226652636566     0.887057526638     1.007825032230
         H           -3.338404355010    -0.636362636566    -0.000572473362     1.007825032230

  Charge       = 0
  Multiplicity = 1
  Basis Set: AUG-CC-PVTZ
    Blend: AUG-CC-PVTZ
  Basis Set: (AUG-CC-PVTZ AUX)
    Blend: AUG-CC-PVTZ-JKFIT

    Orbital Energies [Eh]
    ---------------------

    Doubly Occupied:

       1A    -11.205141     2A     -0.944162     3A     -0.545738
       4A     -0.545706     5A     -0.545435

  @DF-RHF Final Energy:   -40.21368732949755

   => Energetics <=

    Nuclear Repulsion Energy =             13.4894581578144965
    One-Electron Energy =                 -79.8339318353393423
    Two-Electron Energy =                  26.1307863480273035
    Total Energy =                        -40.2136873294975459

  Dipole Moment: [D]
     X:    -0.0009      Y:     0.0005      Z:    -0.0000     Total:     0.0010

    SAPT Results
  --------------------------------------------------------------------------------------------------------
    Electrostatics                 -0.69528075 [mEh]      -0.43629526 [kcal/mol]      -1.82545936 [kJ/mol]
      Elst10,r                     -0.62740919 [mEh]      -0.39370521 [kcal/mol]      -1.64726260 [kJ/mol]
      Elst12,r                     -0.06787156 [mEh]      -0.04259005 [kcal/mol]      -0.17819675 [kJ/mol]

    Exchange                        1.55903290 [mEh]       0.97830792 [kcal/mol]       4.09324032 [kJ/mol]
      Exch10                        1.42550002 [mEh]       0.89451477 [kcal/mol]       3.74264978 [kJ/mol]
      Exch10(S^2)                   1.42435865 [mEh]       0.89379854 [kcal/mol]       3.73965311 [kJ/mol]
      Exch11(S^2)                   0.03887942 [mEh]       0.02439721 [kcal/mol]       0.10207791 [kJ/mol]
      Exch12(S^2)                   0.09465346 [mEh]       0.05939594 [kcal/mol]       0.24851262 [kJ/mol]

    Induction                      -0.12923600 [mEh]      -0.08109681 [kcal/mol]      -0.33930907 [kJ/mol]
      Ind20,r                      -0.19051661 [mEh]      -0.11955098 [kcal/mol]      -0.50020130 [kJ/mol]
      Ind22                        -0.02019387 [mEh]      -0.01267185 [kcal/mol]      -0.05301900 [kJ/mol]
      Exch-Ind20,r                  0.15466144 [mEh]       0.09705152 [kcal/mol]       0.40606357 [kJ/mol]
      Exch-Ind22                    0.01639339 [mEh]       0.01028701 [kcal/mol]       0.04304084 [kJ/mol]
      delta HF,r (2)               -0.08958035 [mEh]      -0.05621252 [kcal/mol]      -0.23519318 [kJ/mol]

    Dispersion                     -2.22273613 [mEh]      -1.39478798 [kcal/mol]      -5.83579290 [kJ/mol]
      Disp20                       -2.25523909 [mEh]      -1.41518389 [kcal/mol]      -5.92112941 [kJ/mol]
      Disp21                        0.01386397 [mEh]       0.00869977 [kcal/mol]       0.03639985 [kJ/mol]
      Disp22 (SDQ)                  0.17462285 [mEh]       0.10957749 [kcal/mol]       0.45847223 [kJ/mol]
      Disp22 (T)                   -0.28311401 [mEh]      -0.17765672 [kcal/mol]      -0.74331572 [kJ/mol]
      Est. Disp22 (T)              -0.31483079 [mEh]      -0.19755930 [kcal/mol]      -0.82658812 [kJ/mol]
      Exch-Disp20                   0.15884693 [mEh]       0.09967795 [kcal/mol]       0.41705255 [kJ/mol]

  Total HF                          0.67265531 [mEh]       0.42209758 [kcal/mol]       1.76605627 [kJ/mol]
  Total SAPT0                      -1.42373685 [mEh]      -0.89340836 [kcal/mol]      -3.73802060 [kJ/mol]
  Total SAPT2                      -1.36187601 [mEh]      -0.85459010 [kcal/mol]      -3.57560497 [kJ/mol]
  Total SAPT2+                     -1.48821998 [mEh]      -0.93387213 [kcal/mol]      -3.90732101 [kJ/mol]

  Special recipe for scaled SAPT0 (see Manual):
    Electrostatics sSAPT0          -0.62740919 [mEh]      -0.39370521 [kcal/mol]      -1.64726260 [kJ/mol]
    Exchange sSAPT0                 1.42550002 [mEh]       0.89451477 [kcal/mol]       3.74264978 [kJ/mol]
    Induction sSAPT0               -0.12506342 [mEh]      -0.07847848 [kcal/mol]      -0.32835397 [kJ/mol]
    Dispersion sSAPT0              -2.09600999 [mEh]      -1.31526613 [kcal/mol]      -5.50307348 [kJ/mol]
  Total sSAPT0                     -1.42298258 [mEh]      -0.89293505 [kcal/mol]      -3.73604026 [kJ/mol]
  --------------------------------------------------------------------------------------------------------

*** Psi4 exiting successfully. Buy a developer a beer!
