                               Psi4 1.4a2.dev224

  ==> Input File <==

--------------------------------------------------------------------------
#Generated by lconvert.py for sapt job

memory 50 GB

molecule  {
0 1
  C       1.433270    0.673520    0.000070
  H       2.314590    1.298680   -0.000900
  H       0.472720    1.168200    0.001070
  C       1.527250   -0.655290    0.000050
  H       0.645880   -1.280300    0.001020
  H       2.487500   -1.150700   -0.000950
--
0 1
  C      -2.722880   -0.040340   -0.096610
  H      -3.013460    1.005710   -0.096740
  H      -2.132880   -0.251750   -0.983150
  H      -2.133830   -0.251780    0.790550
  H      -3.613050   -0.661490   -0.097090
units angstrom
no_reorient
symmetry c1
}

set {
scf_type DF
basis aug-cc-pvtz
freeze_core True
guess SAD
}
energy('sapt2+')
--------------------------------------------------------------------------

  //              Dimer HF             //
    Molecular point group: c1
  Charge       = 0
  Multiplicity = 1
  Basis Set: AUG-CC-PVTZ
    Blend: AUG-CC-PVTZ
  Basis Set: (AUG-CC-PVTZ AUX)
    Blend: AUG-CC-PVTZ-JKFIT
  @DF-RHF Final Energy:  -118.27830988415636
    Total Energy =                       -118.2783098841563572
  //            Monomer A HF           //
    Molecular point group: c1
  Multiplicity = 1
  Basis Set: AUG-CC-PVTZ
    Blend: AUG-CC-PVTZ
  Basis Set: (AUG-CC-PVTZ AUX)
    Blend: AUG-CC-PVTZ-JKFIT
  @DF-RHF Final Energy:   -78.06475308038576
    Total Energy =                        -78.0647530803857563
  //            Monomer B HF           //
    Molecular point group: c1

    Geometry (in Angstrom), charge = 0, multiplicity = 1:

       Center              X                  Y                   Z               Mass
    ------------   -----------------  -----------------  -----------------  -----------------
      Gh(C)           1.482285722969     0.682364594769     0.035181226758    12.000000000000
      Gh(H)           2.363605722969     1.307524594769     0.034211226758     1.007825032230
      Gh(H)           0.521735722969     1.177044594769     0.036181226758     1.007825032230
      Gh(C)           1.576265722969    -0.646445405231     0.035161226758    12.000000000000
      Gh(H)           0.694895722969    -1.271455405231     0.036131226758     1.007825032230
      Gh(H)           2.536515722969    -1.141855405231     0.034161226758     1.007825032230
         C           -2.673864277031    -0.031495405231    -0.061498773242    12.000000000000
         H           -2.964444277031     1.014554594769    -0.061628773242     1.007825032230
         H           -2.083864277031    -0.242905405231    -0.948038773242     1.007825032230
         H           -2.084814277031    -0.242935405231     0.825661226758     1.007825032230
         H           -3.564034277031    -0.652645405231    -0.061978773242     1.007825032230

  Charge       = 0
  Multiplicity = 1
  Basis Set: AUG-CC-PVTZ
    Blend: AUG-CC-PVTZ
  Basis Set: (AUG-CC-PVTZ AUX)
    Blend: AUG-CC-PVTZ-JKFIT

    Orbital Energies [Eh]
    ---------------------

    Doubly Occupied:

       1A    -11.205137     2A     -0.944162     3A     -0.545739
       4A     -0.545707     5A     -0.545433

  @DF-RHF Final Energy:   -40.21368329834105

   => Energetics <=

    Nuclear Repulsion Energy =             13.4894651621238104
    One-Electron Energy =                 -79.8339446285924623
    Two-Electron Energy =                  26.1307961681276097
    Total Energy =                        -40.2136832983410457

  Dipole Moment: [D]
     X:    -0.0009      Y:     0.0005      Z:     0.0000     Total:     0.0010

    SAPT Results
  --------------------------------------------------------------------------------------------------------
    Electrostatics                 -0.27731713 [mEh]      -0.17401913 [kcal/mol]      -0.72809602 [kJ/mol]
      Elst10,r                     -0.25476226 [mEh]      -0.15986573 [kcal/mol]      -0.66887823 [kJ/mol]
      Elst12,r                     -0.02255487 [mEh]      -0.01415339 [kcal/mol]      -0.05921779 [kJ/mol]

    Exchange                        0.46627109 [mEh]       0.29258953 [kcal/mol]       1.22419458 [kJ/mol]
      Exch10                        0.41998766 [mEh]       0.26354624 [kcal/mol]       1.10267746 [kJ/mol]
      Exch10(S^2)                   0.41987971 [mEh]       0.26347849 [kcal/mol]       1.10239402 [kJ/mol]
      Exch11(S^2)                   0.00982427 [mEh]       0.00616483 [kcal/mol]       0.02579363 [kJ/mol]
      Exch12(S^2)                   0.03645916 [mEh]       0.02287847 [kcal/mol]       0.09572350 [kJ/mol]

    Induction                      -0.04023080 [mEh]      -0.02524521 [kcal/mol]      -0.10562594 [kJ/mol]
      Ind20,r                      -0.05092290 [mEh]      -0.03195460 [kcal/mol]      -0.13369806 [kJ/mol]
      Ind22                        -0.00588651 [mEh]      -0.00369384 [kcal/mol]      -0.01545503 [kJ/mol]
      Exch-Ind20,r                  0.03794702 [mEh]       0.02381212 [kcal/mol]       0.09962990 [kJ/mol]
      Exch-Ind22                    0.00438654 [mEh]       0.00275260 [kcal/mol]       0.01151687 [kJ/mol]
      delta HF,r (2)               -0.02575495 [mEh]      -0.01616148 [kcal/mol]      -0.06761962 [kJ/mol]

    Dispersion                     -1.24120224 [mEh]      -0.77886616 [kcal/mol]      -3.25877602 [kJ/mol]
      Disp20                       -1.23015199 [mEh]      -0.77193203 [kcal/mol]      -3.22976361 [kJ/mol]
      Disp21                        0.01296689 [mEh]       0.00813685 [kcal/mol]       0.03404456 [kJ/mol]
      Disp22 (SDQ)                  0.09852920 [mEh]       0.06182801 [kcal/mol]       0.25868837 [kJ/mol]
      Disp22 (T)                   -0.15847514 [mEh]      -0.09944465 [kcal/mol]      -0.41607643 [kJ/mol]
      Est. Disp22 (T)              -0.17509930 [mEh]      -0.10987647 [kcal/mol]      -0.45972314 [kJ/mol]
      Exch-Disp20                   0.05255296 [mEh]       0.03297748 [kcal/mol]       0.13797779 [kJ/mol]

  Total HF                          0.12649457 [mEh]       0.07937654 [kcal/mol]       0.33211145 [kJ/mol]
  Total SAPT0                      -1.05110446 [mEh]      -0.65957800 [kcal/mol]      -2.75967437 [kJ/mol]
  Total SAPT2                      -1.02887586 [mEh]      -0.64562935 [kcal/mol]      -2.70131319 [kJ/mol]
  Total SAPT2+                     -1.09247907 [mEh]      -0.68554097 [kcal/mol]      -2.86830340 [kJ/mol]

  Special recipe for scaled SAPT0 (see Manual):
    Electrostatics sSAPT0          -0.25476226 [mEh]      -0.15986573 [kcal/mol]      -0.66887823 [kJ/mol]
    Exchange sSAPT0                 0.41998766 [mEh]       0.26354624 [kcal/mol]       1.10267746 [kJ/mol]
    Induction sSAPT0               -0.03870155 [mEh]      -0.02428559 [kcal/mol]      -0.10161091 [kJ/mol]
    Dispersion sSAPT0              -1.17755848 [mEh]      -0.73892910 [kcal/mol]      -3.09167937 [kJ/mol]
  Total sSAPT0                     -1.05103463 [mEh]      -0.65953419 [kcal/mol]      -2.75949105 [kJ/mol]
  --------------------------------------------------------------------------------------------------------

*** Psi4 exiting successfully. Buy a developer a beer!
