                               Psi4 1.4a2.dev224

  ==> Input File <==

--------------------------------------------------------------------------
#Generated by lconvert.py for sapt job

memory 50 GB

molecule  {
0 1
  C       1.433270    0.673520    0.000070
  H       2.314590    1.298680   -0.000900
  H       0.472720    1.168200    0.001070
  C       1.527250   -0.655290    0.000050
  H       0.645880   -1.280300    0.001020
  H       2.487500   -1.150700   -0.000950
--
0 1
  C      -1.412030    0.054290    0.260100
  H      -1.702600    1.100350    0.259970
  H      -0.822030   -0.157110   -0.626440
  H      -0.822970   -0.157150    1.147260
  H      -2.302200   -0.566860    0.259620
units angstrom
no_reorient
symmetry c1
}

set {
scf_type DF
basis aug-cc-pvtz
freeze_core True
guess SAD
}
energy('sapt2+')
--------------------------------------------------------------------------

  //              Dimer HF             //
    Molecular point group: c1
  Charge       = 0
  Multiplicity = 1
  Basis Set: AUG-CC-PVTZ
    Blend: AUG-CC-PVTZ
  Basis Set: (AUG-CC-PVTZ AUX)
    Blend: AUG-CC-PVTZ-JKFIT
  @DF-RHF Final Energy:  -118.25993410812723
    Total Energy =                       -118.2599341081272257
  //            Monomer A HF           //
    Molecular point group: c1
  Multiplicity = 1
  Basis Set: AUG-CC-PVTZ
    Blend: AUG-CC-PVTZ
  Basis Set: (AUG-CC-PVTZ AUX)
    Blend: AUG-CC-PVTZ-JKFIT
  @DF-RHF Final Energy:   -78.06478923946165
    Total Energy =                        -78.0647892394616463
  //            Monomer B HF           //
    Molecular point group: c1

    Geometry (in Angstrom), charge = 0, multiplicity = 1:

       Center              X                  Y                   Z               Mass
    ------------   -----------------  -----------------  -----------------  -----------------
      Gh(C)           1.005358582774     0.647934895231    -0.094600607168    12.000000000000
      Gh(H)           1.886678582774     1.273094895231    -0.095570607168     1.007825032230
      Gh(H)           0.044808582774     1.142614895231    -0.093600607168     1.007825032230
      Gh(C)           1.099338582774    -0.680875104769    -0.094620607168    12.000000000000
      Gh(H)           0.217968582774    -1.305885104769    -0.093650607168     1.007825032230
      Gh(H)           2.059588582774    -1.176285104769    -0.095620607168     1.007825032230
         C           -1.839941417226     0.028704895231     0.165429392832    12.000000000000
         H           -2.130511417226     1.074764895231     0.165299392832     1.007825032230
         H           -1.249941417226    -0.182695104769    -0.721110607168     1.007825032230
         H           -1.250881417226    -0.182735104769     1.052589392832     1.007825032230
         H           -2.730111417226    -0.592445104769     0.164949392832     1.007825032230

  Charge       = 0
  Multiplicity = 1
  Basis Set: AUG-CC-PVTZ
    Blend: AUG-CC-PVTZ
  Basis Set: (AUG-CC-PVTZ AUX)
    Blend: AUG-CC-PVTZ-JKFIT

    Orbital Energies [Eh]
    ---------------------

    Doubly Occupied:

       1A    -11.205154     2A     -0.944159     3A     -0.545736
       4A     -0.545707     5A     -0.545431

  @DF-RHF Final Energy:   -40.21370261967833

   => Energetics <=

    Nuclear Repulsion Energy =             13.4894327403268850
    One-Electron Energy =                 -79.8338988488347212
    Two-Electron Energy =                  26.1307634888294977
    Total Energy =                        -40.2137026196783296

  Dipole Moment: [D]
     X:    -0.0008      Y:     0.0006      Z:     0.0000     Total:     0.0010

    SAPT Results
  --------------------------------------------------------------------------------------------------------
    Electrostatics                -11.16049142 [mEh]      -7.00331410 [kcal/mol]     -29.30186618 [kJ/mol]
      Elst10,r                    -10.28957257 [mEh]      -6.45680427 [kcal/mol]     -27.01526906 [kJ/mol]
      Elst12,r                     -0.87091885 [mEh]      -0.54650983 [kcal/mol]      -2.28659712 [kJ/mol]

    Exchange                       33.01439436 [mEh]      20.71684523 [kcal/mol]      86.67928046 [kJ/mol]
      Exch10                       31.49762918 [mEh]      19.76506071 [kcal/mol]      82.69701401 [kJ/mol]
      Exch10(S^2)                  31.07592818 [mEh]      19.50043934 [kcal/mol]      81.58983819 [kJ/mol]
      Exch11(S^2)                   0.98974608 [mEh]       0.62107504 [kcal/mol]       2.59857797 [kJ/mol]
      Exch12(S^2)                   0.52701911 [mEh]       0.33070948 [kcal/mol]       1.38368848 [kJ/mol]

    Induction                      -2.70743365 [mEh]      -1.69894027 [kcal/mol]      -7.10836607 [kJ/mol]
      Ind20,r                      -6.91078042 [mEh]      -4.33658018 [kcal/mol]     -18.14425149 [kJ/mol]
      Ind22                        -0.43605123 [mEh]      -0.27362628 [kcal/mol]      -1.14485236 [kJ/mol]
      Exch-Ind20,r                  6.00538345 [mEh]       3.76843501 [kcal/mol]      15.76713208 [kJ/mol]
      Exch-Ind22                    0.37892318 [mEh]       0.23777788 [kcal/mol]       0.99486266 [kJ/mol]
      delta HF,r (2)               -1.74490863 [mEh]      -1.09494669 [kcal/mol]      -4.58125697 [kJ/mol]

    Dispersion                    -11.53713535 [mEh]      -7.23966173 [kcal/mol]     -30.29074468 [kJ/mol]
      Disp20                      -13.51291508 [mEh]      -8.47948223 [kcal/mol]     -35.47815364 [kJ/mol]
      Disp21                        0.31042766 [mEh]       0.19479630 [kcal/mol]       0.81502770 [kJ/mol]
      Disp22 (SDQ)                  0.95032108 [mEh]       0.59633548 [kcal/mol]       2.49506765 [kJ/mol]
      Disp22 (T)                   -1.49943338 [mEh]      -0.94090865 [kcal/mol]      -3.93676181 [kJ/mol]
      Est. Disp22 (T)              -1.68572876 [mEh]      -1.05781077 [kcal/mol]      -4.42588025 [kJ/mol]
      Exch-Disp20                   2.40075975 [mEh]       1.50649949 [kcal/mol]       6.30319386 [kJ/mol]

  Total HF                         18.55775101 [mEh]      11.64516457 [kcal/mol]      48.72336857 [kJ/mol]
  Total SAPT0                       7.44559569 [mEh]       4.67218183 [kcal/mol]      19.54840879 [kJ/mol]
  Total SAPT2                       8.03431397 [mEh]       5.04160813 [kcal/mol]      21.09408843 [kJ/mol]
  Total SAPT2+                      7.60933395 [mEh]       4.77492914 [kcal/mol]      19.97830353 [kJ/mol]

  Special recipe for scaled SAPT0 (see Manual):
    Electrostatics sSAPT0         -10.28957257 [mEh]      -6.45680427 [kcal/mol]     -27.01526906 [kJ/mol]
    Exchange sSAPT0                31.49762918 [mEh]      19.76506071 [kcal/mol]      82.69701401 [kJ/mol]
    Induction sSAPT0               -2.40249346 [mEh]      -1.50758740 [kcal/mol]      -6.30774570 [kJ/mol]
    Dispersion sSAPT0             -11.01308798 [mEh]      -6.91081704 [kcal/mol]     -28.91485850 [kJ/mol]
  Total sSAPT0                      7.79247517 [mEh]       4.88985200 [kcal/mol]      20.45914075 [kJ/mol]
  --------------------------------------------------------------------------------------------------------

*** Psi4 exiting successfully. Buy a developer a beer!
