                               Psi4 1.4a2.dev224

  ==> Input File <==

--------------------------------------------------------------------------
#Generated by lconvert.py for sapt job

memory 50 GB

molecule  {
0 1
  C       1.433270    0.673520    0.000070
  H       2.314590    1.298680   -0.000900
  H       0.472720    1.168200    0.001070
  C       1.527250   -0.655290    0.000050
  H       0.645880   -1.280300    0.001020
  H       2.487500   -1.150700   -0.000950
--
0 1
  C      -2.548500   -0.027750   -0.049160
  H      -2.839070    1.018300   -0.049290
  H      -1.958500   -0.239160   -0.935690
  H      -1.959450   -0.239190    0.838000
  H      -3.438670   -0.648900   -0.049640
units angstrom
no_reorient
symmetry c1
}

set {
scf_type DF
basis aug-cc-pvtz
freeze_core True
guess SAD
}
energy('sapt2+')
--------------------------------------------------------------------------

  //              Dimer HF             //
    Molecular point group: c1
  Charge       = 0
  Multiplicity = 1
  Basis Set: AUG-CC-PVTZ
    Blend: AUG-CC-PVTZ
  Basis Set: (AUG-CC-PVTZ AUX)
    Blend: AUG-CC-PVTZ-JKFIT
  @DF-RHF Final Energy:  -118.27813150624073
    Total Energy =                       -118.2781315062407259
  //            Monomer A HF           //
    Molecular point group: c1
  Multiplicity = 1
  Basis Set: AUG-CC-PVTZ
    Blend: AUG-CC-PVTZ
  Basis Set: (AUG-CC-PVTZ AUX)
    Blend: AUG-CC-PVTZ-JKFIT
  @DF-RHF Final Energy:   -78.06475565691707
    Total Energy =                        -78.0647556569170717
  //            Monomer B HF           //
    Molecular point group: c1

    Geometry (in Angstrom), charge = 0, multiplicity = 1:

       Center              X                  Y                   Z               Mass
    ------------   -----------------  -----------------  -----------------  -----------------
      Gh(C)           1.418840801916     0.677783973846     0.017917259926    12.000000000000
      Gh(H)           2.300160801916     1.302943973846     0.016947259926     1.007825032230
      Gh(H)           0.458290801916     1.172463973846     0.018917259926     1.007825032230
      Gh(C)           1.512820801916    -0.651026026154     0.017897259926    12.000000000000
      Gh(H)           0.631450801916    -1.276036026154     0.018867259926     1.007825032230
      Gh(H)           2.473070801916    -1.146436026154     0.016897259926     1.007825032230
         C           -2.562929198084    -0.023486026154    -0.031312740074    12.000000000000
         H           -2.853499198084     1.022563973846    -0.031442740074     1.007825032230
         H           -1.972929198084    -0.234896026154    -0.917842740074     1.007825032230
         H           -1.973879198084    -0.234926026154     0.855847259926     1.007825032230
         H           -3.453099198084    -0.644636026154    -0.031792740074     1.007825032230

  Charge       = 0
  Multiplicity = 1
  Basis Set: AUG-CC-PVTZ
    Blend: AUG-CC-PVTZ
  Basis Set: (AUG-CC-PVTZ AUX)
    Blend: AUG-CC-PVTZ-JKFIT

    Orbital Energies [Eh]
    ---------------------

    Doubly Occupied:

       1A    -11.205138     2A     -0.944163     3A     -0.545740
       4A     -0.545707     5A     -0.545434

  @DF-RHF Final Energy:   -40.21368517700845

   => Energetics <=

    Nuclear Repulsion Energy =             13.4894988339289927
    One-Electron Energy =                 -79.8340070940810591
    Two-Electron Energy =                  26.1308230831436177
    Total Energy =                        -40.2136851770084505

  Dipole Moment: [D]
     X:    -0.0009      Y:     0.0005      Z:    -0.0000     Total:     0.0010

    SAPT Results
  --------------------------------------------------------------------------------------------------------
    Electrostatics                 -0.43002431 [mEh]      -0.26984433 [kcal/mol]      -1.12902866 [kJ/mol]
      Elst10,r                     -0.39083533 [mEh]      -0.24525287 [kcal/mol]      -1.02613801 [kJ/mol]
      Elst12,r                     -0.03918898 [mEh]      -0.02459146 [kcal/mol]      -0.10289065 [kJ/mol]

    Exchange                        0.84746679 [mEh]       0.53179344 [kcal/mol]       2.22502374 [kJ/mol]
      Exch10                        0.76899343 [mEh]       0.48255066 [kcal/mol]       2.01899196 [kJ/mol]
      Exch10(S^2)                   0.76864589 [mEh]       0.48233258 [kcal/mol]       2.01807952 [kJ/mol]
      Exch11(S^2)                   0.01951849 [mEh]       0.01224804 [kcal/mol]       0.05124580 [kJ/mol]
      Exch12(S^2)                   0.05895487 [mEh]       0.03699474 [kcal/mol]       0.15478598 [kJ/mol]

    Induction                      -0.07119911 [mEh]      -0.04467811 [kcal/mol]      -0.18693323 [kJ/mol]
      Ind20,r                      -0.09702501 [mEh]      -0.06088411 [kcal/mol]      -0.25473913 [kJ/mol]
      Ind22                        -0.01084394 [mEh]      -0.00680467 [kcal/mol]      -0.02847075 [kJ/mol]
      Exch-Ind20,r                  0.07583136 [mEh]       0.04758489 [kcal/mol]       0.19909520 [kJ/mol]
      Exch-Ind22                    0.00847524 [mEh]       0.00531829 [kcal/mol]       0.02225174 [kJ/mol]
      delta HF,r (2)               -0.04763676 [mEh]      -0.02989252 [kcal/mol]      -0.12507029 [kJ/mol]

    Dispersion                     -1.64769528 [mEh]      -1.03394440 [kcal/mol]      -4.32602336 [kJ/mol]
      Disp20                       -1.64870856 [mEh]      -1.03458024 [kcal/mol]      -4.32868372 [kJ/mol]
      Disp21                        0.01305377 [mEh]       0.00819136 [kcal/mol]       0.03427267 [kJ/mol]
      Disp22 (SDQ)                  0.12984919 [mEh]       0.08148160 [kcal/mol]       0.34091900 [kJ/mol]
      Disp22 (T)                   -0.21057356 [mEh]      -0.13213690 [kcal/mol]      -0.55286080 [kJ/mol]
      Est. Disp22 (T)              -0.23284711 [mEh]      -0.14611377 [kcal/mol]      -0.61134000 [kJ/mol]
      Exch-Disp20                   0.09095742 [mEh]       0.05707665 [kcal/mol]       0.23880868 [kJ/mol]

  Total HF                          0.30932768 [mEh]       0.19410605 [kcal/mol]       0.81213972 [kJ/mol]
  Total SAPT0                      -1.24842345 [mEh]      -0.78339754 [kcal/mol]      -3.27773531 [kJ/mol]
  Total SAPT2                      -1.21150776 [mEh]      -0.76023260 [kcal/mol]      -3.18081318 [kJ/mol]
  Total SAPT2+                     -1.30145191 [mEh]      -0.81667340 [kcal/mol]      -3.41696151 [kJ/mol]

  Special recipe for scaled SAPT0 (see Manual):
    Electrostatics sSAPT0          -0.39083533 [mEh]      -0.24525287 [kcal/mol]      -1.02613801 [kJ/mol]
    Exchange sSAPT0                 0.76899343 [mEh]       0.48255066 [kcal/mol]       2.01899196 [kJ/mol]
    Induction sSAPT0               -0.06872751 [mEh]      -0.04312716 [kcal/mol]      -0.18044405 [kJ/mol]
    Dispersion sSAPT0              -1.55762770 [mEh]      -0.97742614 [kcal/mol]      -4.08955096 [kJ/mol]
  Total sSAPT0                     -1.24819711 [mEh]      -0.78325551 [kcal/mol]      -3.27714106 [kJ/mol]
  --------------------------------------------------------------------------------------------------------

*** Psi4 exiting successfully. Buy a developer a beer!
