                               Psi4 1.4a2.dev224

  ==> Input File <==

--------------------------------------------------------------------------
#Generated by lconvert.py for sapt job

memory 50 GB

molecule  {
0 1
  C       1.433270    0.673520    0.000070
  H       2.314590    1.298680   -0.000900
  H       0.472720    1.168200    0.001070
  C       1.527250   -0.655290    0.000050
  H       0.645880   -1.280300    0.001020
  H       2.487500   -1.150700   -0.000950
--
0 1
  C      -2.063640    0.007250    0.082780
  H      -2.354210    1.053300    0.082650
  H      -1.473640   -0.204150   -0.803750
  H      -1.474580   -0.204190    0.969940
  H      -2.953810   -0.613900    0.082300
units angstrom
no_reorient
symmetry c1
}

set {
scf_type DF
basis aug-cc-pvtz
freeze_core True
guess SAD
}
energy('sapt2+')
--------------------------------------------------------------------------

  //              Dimer HF             //
    Molecular point group: c1
  Charge       = 0
  Multiplicity = 1
  Basis Set: AUG-CC-PVTZ
    Blend: AUG-CC-PVTZ
  Basis Set: (AUG-CC-PVTZ AUX)
    Blend: AUG-CC-PVTZ-JKFIT
  @DF-RHF Final Energy:  -118.27631836974956
    Total Energy =                       -118.2763183697495606
  //            Monomer A HF           //
    Molecular point group: c1
  Multiplicity = 1
  Basis Set: AUG-CC-PVTZ
    Blend: AUG-CC-PVTZ
  Basis Set: (AUG-CC-PVTZ AUX)
    Blend: AUG-CC-PVTZ-JKFIT
  @DF-RHF Final Energy:   -78.06476481540699
    Total Energy =                        -78.0647648154069884
  //            Monomer B HF           //
    Molecular point group: c1

    Geometry (in Angstrom), charge = 0, multiplicity = 1:

       Center              X                  Y                   Z               Mass
    ------------   -----------------  -----------------  -----------------  -----------------
      Gh(C)           1.242433912325     0.665049691723    -0.030086483081    12.000000000000
      Gh(H)           2.123753912325     1.290209691723    -0.031056483081     1.007825032230
      Gh(H)           0.281883912325     1.159729691723    -0.029086483081     1.007825032230
      Gh(C)           1.336413912325    -0.663760308277    -0.030106483081    12.000000000000
      Gh(H)           0.455043912325    -1.288770308277    -0.029136483081     1.007825032230
      Gh(H)           2.296663912325    -1.159170308277    -0.031106483081     1.007825032230
         C           -2.254476087675    -0.001220308277     0.052623516919    12.000000000000
         H           -2.545046087675     1.044829691723     0.052493516919     1.007825032230
         H           -1.664476087675    -0.212620308277    -0.833906483081     1.007825032230
         H           -1.665416087675    -0.212660308277     0.939783516919     1.007825032230
         H           -3.144646087675    -0.622370308277     0.052143516919     1.007825032230

  Charge       = 0
  Multiplicity = 1
  Basis Set: AUG-CC-PVTZ
    Blend: AUG-CC-PVTZ
  Basis Set: (AUG-CC-PVTZ AUX)
    Blend: AUG-CC-PVTZ-JKFIT

    Orbital Energies [Eh]
    ---------------------

    Doubly Occupied:

       1A    -11.205142     2A     -0.944162     3A     -0.545739
       4A     -0.545708     5A     -0.545434

  @DF-RHF Final Energy:   -40.21369141676211

   => Energetics <=

    Nuclear Repulsion Energy =             13.4894880312583467
    One-Electron Energy =                 -79.8339921592862112
    Two-Electron Energy =                  26.1308127112657544
    Total Energy =                        -40.2136914167621100

  Dipole Moment: [D]
     X:    -0.0009      Y:     0.0006      Z:     0.0000     Total:     0.0010

    SAPT Results
  --------------------------------------------------------------------------------------------------------
    Electrostatics                 -1.64007010 [mEh]      -1.02915953 [kcal/mol]      -4.30600346 [kJ/mol]
      Elst10,r                     -1.47616714 [mEh]      -0.92630887 [kcal/mol]      -3.87567630 [kJ/mol]
      Elst12,r                     -0.16390296 [mEh]      -0.10285066 [kcal/mol]      -0.43032716 [kJ/mol]

    Exchange                        4.27286067 [mEh]       2.68126055 [kcal/mol]      11.21839415 [kJ/mol]
      Exch10                        3.95817185 [mEh]       2.48379033 [kcal/mol]      10.39217876 [kJ/mol]
      Exch10(S^2)                   3.95007085 [mEh]       2.47870688 [kcal/mol]      10.37090958 [kJ/mol]
      Exch11(S^2)                   0.11844893 [mEh]       0.07432782 [kcal/mol]       0.31098762 [kJ/mol]
      Exch12(S^2)                   0.19623989 [mEh]       0.12314239 [kcal/mol]       0.51522777 [kJ/mol]

    Induction                      -0.35263503 [mEh]      -0.22128182 [kcal/mol]      -0.92584313 [kJ/mol]
      Ind20,r                      -0.60085275 [mEh]      -0.37704079 [kcal/mol]      -1.57753867 [kJ/mol]
      Ind22                        -0.05629115 [mEh]      -0.03532323 [kcal/mol]      -0.14779240 [kJ/mol]
      Exch-Ind20,r                  0.51020110 [mEh]       0.32015602 [kcal/mol]       1.33953279 [kJ/mol]
      Exch-Ind22                    0.04779841 [mEh]       0.02999396 [kcal/mol]       0.12549471 [kJ/mol]
      delta HF,r (2)               -0.25349064 [mEh]      -0.15906778 [kcal/mol]      -0.66553957 [kJ/mol]

    Dispersion                     -3.72749622 [mEh]      -2.33903919 [kcal/mol]      -9.78653999 [kJ/mol]
      Disp20                       -3.91156273 [mEh]      -2.45454267 [kcal/mol]     -10.26980653 [kJ/mol]
      Disp21                        0.02392380 [mEh]       0.01501241 [kcal/mol]       0.06281192 [kJ/mol]
      Disp22 (SDQ)                  0.29451480 [mEh]       0.18481083 [kcal/mol]       0.77324850 [kJ/mol]
      Disp22 (T)                   -0.47071641 [mEh]      -0.29537901 [kcal/mol]      -1.23586576 [kJ/mol]
      Est. Disp22 (T)              -0.53113981 [mEh]      -0.33329526 [kcal/mol]      -1.39450738 [kJ/mol]
      Exch-Disp20                   0.39676772 [mEh]       0.24897550 [kcal/mol]       1.04171350 [kJ/mol]

  Total HF                          2.13786242 [mEh]       1.34152892 [kcal/mol]       5.61295701 [kJ/mol]
  Total SAPT0                      -1.37693259 [mEh]      -0.86403825 [kcal/mol]      -3.61513602 [kJ/mol]
  Total SAPT2                      -1.23463947 [mEh]      -0.77474796 [kcal/mol]      -3.24154548 [kJ/mol]
  Total SAPT2+                     -1.44734068 [mEh]      -0.90821999 [kcal/mol]      -3.79999243 [kJ/mol]

  Special recipe for scaled SAPT0 (see Manual):
    Electrostatics sSAPT0          -1.47616714 [mEh]      -0.92630887 [kcal/mol]      -3.87567630 [kJ/mol]
    Exchange sSAPT0                 3.95817185 [mEh]       2.48379033 [kcal/mol]      10.39217876 [kJ/mol]
    Induction sSAPT0               -0.34099681 [mEh]      -0.21397873 [kcal/mol]      -0.89528699 [kJ/mol]
    Dispersion sSAPT0              -3.51234887 [mEh]      -2.20403219 [kcal/mol]      -9.22167068 [kJ/mol]
  Total sSAPT0                     -1.37134097 [mEh]      -0.86052945 [kcal/mol]      -3.60045521 [kJ/mol]
  --------------------------------------------------------------------------------------------------------

*** Psi4 exiting successfully. Buy a developer a beer!
