                               Psi4 1.4a2.dev224

  ==> Input File <==

--------------------------------------------------------------------------
#Generated by lconvert.py for sapt job

memory 50 GB

molecule  {
0 1
  C      -1.635460   -0.589710    0.000260
  C      -1.253730    0.687370   -0.000210
  H      -1.799160   -1.127790   -0.922420
  H      -1.798090   -1.127430    0.923340
  H      -1.091050    1.226750    0.921740
  H      -1.092110    1.226260   -0.922630
--
0 1
  N       2.189290    0.037610   -0.000410
  H       2.572660   -0.432580    0.809050
  H       1.198630   -0.171350   -0.001850
  H       2.576440   -0.438610   -0.804540
units angstrom
no_reorient
symmetry c1
}

set {
scf_type DF
basis aug-cc-pvtz
freeze_core True
guess SAD
}
energy('sapt2+')
--------------------------------------------------------------------------

  //              Dimer HF             //
    Molecular point group: c1
  Charge       = 0
  Multiplicity = 1
  Basis Set: AUG-CC-PVTZ
    Blend: AUG-CC-PVTZ
  Basis Set: (AUG-CC-PVTZ AUX)
    Blend: AUG-CC-PVTZ-JKFIT
  @DF-RHF Final Energy:  -134.28468401760045
    Total Energy =                       -134.2846840176004548
  //            Monomer A HF           //
    Molecular point group: c1
  Multiplicity = 1
  Basis Set: AUG-CC-PVTZ
    Blend: AUG-CC-PVTZ
  Basis Set: (AUG-CC-PVTZ AUX)
    Blend: AUG-CC-PVTZ-JKFIT
  @DF-RHF Final Energy:   -78.06477958986372
    Total Energy =                        -78.0647795898637185
  //            Monomer B HF           //
    Molecular point group: c1

    Geometry (in Angstrom), charge = 0, multiplicity = 1:

       Center              X                  Y                   Z               Mass
    ------------   -----------------  -----------------  -----------------  -----------------
      Gh(C)          -1.559075288471    -0.608512837504     0.000313935353    12.000000000000
      Gh(C)          -1.177345288471     0.668567162496    -0.000156064647    12.000000000000
      Gh(H)          -1.722775288471    -1.146592837504    -0.922366064647     1.007825032230
      Gh(H)          -1.721705288471    -1.146232837504     0.923393935353     1.007825032230
      Gh(H)          -1.014665288471     1.207947162496     0.921793935353     1.007825032230
      Gh(H)          -1.015725288471     1.207457162496    -0.922576064647     1.007825032230
         N            2.265674711529     0.018807162496    -0.000356064647    14.003074004430
         H            2.649044711529    -0.451382837504     0.809103935353     1.007825032230
         H            1.275014711529    -0.190152837504    -0.001796064647     1.007825032230
         H            2.652824711529    -0.457412837504    -0.804486064647     1.007825032230

  Charge       = 0
  Multiplicity = 1
  Basis Set: AUG-CC-PVTZ
    Blend: AUG-CC-PVTZ
  Basis Set: (AUG-CC-PVTZ AUX)
    Blend: AUG-CC-PVTZ-JKFIT

    Orbital Energies [Eh]
    ---------------------

    Doubly Occupied:

       1A    -15.542207     2A     -1.144028     3A     -0.627927
       4A     -0.627489     5A     -0.431792

  @DF-RHF Final Energy:   -56.22025102521805

   => Energetics <=

    Nuclear Repulsion Energy =             11.9649172325010511
    One-Electron Energy =                 -99.6234474816882170
    Two-Electron Energy =                  31.4382792239691184
    Total Energy =                        -56.2202510252180474

  Dipole Moment: [D]
     X:    -0.3106      Y:    -1.6245      Z:     0.0054     Total:     1.6540

    SAPT Results
  --------------------------------------------------------------------------------------------------------
    Electrostatics                 -3.19795802 [mEh]      -2.00674895 [kcal/mol]      -8.39623761 [kJ/mol]
      Elst10,r                     -3.56933788 [mEh]      -2.23979333 [kcal/mol]      -9.37129531 [kJ/mol]
      Elst12,r                      0.37137986 [mEh]       0.23304438 [kcal/mol]       0.97505769 [kJ/mol]

    Exchange                        4.85584352 [mEh]       3.04708781 [kcal/mol]      12.74901541 [kJ/mol]
      Exch10                        4.89527746 [mEh]       3.07183298 [kcal/mol]      12.85254920 [kJ/mol]
      Exch10(S^2)                   4.87305228 [mEh]       3.05788647 [kcal/mol]      12.79419699 [kJ/mol]
      Exch11(S^2)                   0.22857511 [mEh]       0.14343305 [kcal/mol]       0.60012387 [kJ/mol]
      Exch12(S^2)                  -0.26800905 [mEh]      -0.16817822 [kcal/mol]      -0.70365766 [kJ/mol]

    Induction                      -0.95905967 [mEh]      -0.60181903 [kcal/mol]      -2.51801081 [kJ/mol]
      Ind20,r                      -1.72024243 [mEh]      -1.07946842 [kcal/mol]      -4.51649587 [kJ/mol]
      Ind22                         0.07596306 [mEh]       0.04766754 [kcal/mol]       0.19944099 [kJ/mol]
      Exch-Ind20,r                  1.26093105 [mEh]       0.79124618 [kcal/mol]       3.31057402 [kJ/mol]
      Exch-Ind22                   -0.05568063 [mEh]      -0.03494012 [kcal/mol]      -0.14618948 [kJ/mol]
      delta HF,r (2)               -0.52003073 [mEh]      -0.32632421 [kcal/mol]      -1.36534048 [kJ/mol]

    Dispersion                     -2.87653425 [mEh]      -1.80505249 [kcal/mol]      -7.55233963 [kJ/mol]
      Disp20                       -3.30757176 [mEh]      -2.07553261 [kcal/mol]      -8.68402846 [kJ/mol]
      Disp21                        0.13401898 [mEh]       0.08409818 [kcal/mol]       0.35186680 [kJ/mol]
      Disp22 (SDQ)                  0.34253234 [mEh]       0.21494229 [kcal/mol]       0.89931852 [kJ/mol]
      Disp22 (T)                   -0.45177098 [mEh]      -0.28349057 [kcal/mol]      -1.18612454 [kJ/mol]
      Est. Disp22 (T)              -0.52490725 [mEh]      -0.32938427 [kcal/mol]      -1.37814379 [kJ/mol]
      Exch-Disp20                   0.47939344 [mEh]       0.30082392 [kcal/mol]       1.25864730 [kJ/mol]

  Total HF                          0.34659748 [mEh]       0.21749320 [kcal/mol]       0.90999156 [kJ/mol]
  Total SAPT0                      -2.48158084 [mEh]      -1.55721549 [kcal/mol]      -6.51538960 [kJ/mol]
  Total SAPT2                      -2.12935248 [mEh]      -1.33618886 [kcal/mol]      -5.59061418 [kJ/mol]
  Total SAPT2+                     -2.17770841 [mEh]      -1.36653266 [kcal/mol]      -5.71757265 [kJ/mol]

  Special recipe for scaled SAPT0 (see Manual):
    Electrostatics sSAPT0          -3.56933788 [mEh]      -2.23979333 [kcal/mol]      -9.37129531 [kJ/mol]
    Exchange sSAPT0                 4.89527746 [mEh]       3.07183298 [kcal/mol]      12.85254920 [kJ/mol]
    Induction sSAPT0               -0.96201060 [mEh]      -0.60367077 [kcal/mol]      -2.52575848 [kJ/mol]
    Dispersion sSAPT0              -2.82158906 [mEh]      -1.77057387 [kcal/mol]      -7.40808105 [kJ/mol]
  Total sSAPT0                     -2.45766008 [mEh]      -1.54220498 [kcal/mol]      -6.45258565 [kJ/mol]
  --------------------------------------------------------------------------------------------------------

*** Psi4 exiting successfully. Buy a developer a beer!
