                               Psi4 1.4a2.dev224

  ==> Input File <==

--------------------------------------------------------------------------
#Generated by lconvert.py for sapt job

memory 50 GB

molecule  {
0 1
  C      -1.635460   -0.589710    0.000260
  C      -1.253730    0.687370   -0.000210
  H      -1.799160   -1.127790   -0.922420
  H      -1.798090   -1.127430    0.923340
  H      -1.091050    1.226750    0.921740
  H      -1.092110    1.226260   -0.922630
--
0 1
  N       4.123860    0.031590   -0.000640
  H       4.507230   -0.438600    0.808820
  H       3.133200   -0.177370   -0.002080
  H       4.511010   -0.444620   -0.804770
units angstrom
no_reorient
symmetry c1
}

set {
scf_type DF
basis aug-cc-pvtz
freeze_core True
guess SAD
}
energy('sapt2+')
--------------------------------------------------------------------------

  //              Dimer HF             //
    Molecular point group: c1
  Charge       = 0
  Multiplicity = 1
  Basis Set: AUG-CC-PVTZ
    Blend: AUG-CC-PVTZ
  Basis Set: (AUG-CC-PVTZ AUX)
    Blend: AUG-CC-PVTZ-JKFIT
  @DF-RHF Final Energy:  -134.28527398456879
    Total Energy =                       -134.2852739845687893
  //            Monomer A HF           //
    Molecular point group: c1
  Multiplicity = 1
  Basis Set: AUG-CC-PVTZ
    Blend: AUG-CC-PVTZ
  Basis Set: (AUG-CC-PVTZ AUX)
    Blend: AUG-CC-PVTZ-JKFIT
  @DF-RHF Final Energy:   -78.06471361083757
    Total Energy =                        -78.0647136108375719
  //            Monomer B HF           //
    Molecular point group: c1

    Geometry (in Angstrom), charge = 0, multiplicity = 1:

       Center              X                  Y                   Z               Mass
    ------------   -----------------  -----------------  -----------------  -----------------
      Gh(C)          -2.290114422771    -0.606238211682     0.000400848208    12.000000000000
      Gh(C)          -1.908384422771     0.670841788318    -0.000069151792    12.000000000000
      Gh(H)          -2.453814422771    -1.144318211682    -0.922279151792     1.007825032230
      Gh(H)          -2.452744422771    -1.143958211682     0.923480848208     1.007825032230
      Gh(H)          -1.745704422771     1.210221788318     0.921880848208     1.007825032230
      Gh(H)          -1.746764422771     1.209731788318    -0.922489151792     1.007825032230
         N            3.469205577229     0.015061788318    -0.000499151792    14.003074004430
         H            3.852575577229    -0.455128211682     0.808960848208     1.007825032230
         H            2.478545577229    -0.193898211682    -0.001939151792     1.007825032230
         H            3.856355577229    -0.461148211682    -0.804629151792     1.007825032230

  Charge       = 0
  Multiplicity = 1
  Basis Set: AUG-CC-PVTZ
    Blend: AUG-CC-PVTZ
  Basis Set: (AUG-CC-PVTZ AUX)
    Blend: AUG-CC-PVTZ-JKFIT

    Orbital Energies [Eh]
    ---------------------

    Doubly Occupied:

       1A    -15.542209     2A     -1.144032     3A     -0.627930
       4A     -0.627497     5A     -0.431794

  @DF-RHF Final Energy:   -56.22022838408112

   => Energetics <=

    Nuclear Repulsion Energy =             11.9649346160373486
    One-Electron Energy =                 -99.6234005993301821
    Two-Electron Energy =                  31.4382375992117034
    Total Energy =                        -56.2202283840811248

  Dipole Moment: [D]
     X:    -0.3102      Y:    -1.6236      Z:     0.0054     Total:     1.6530

    SAPT Results
  --------------------------------------------------------------------------------------------------------
    Electrostatics                 -0.28277472 [mEh]      -0.17744381 [kcal/mol]      -0.74242491 [kJ/mol]
      Elst10,r                     -0.33016476 [mEh]      -0.20718151 [kcal/mol]      -0.86684746 [kJ/mol]
      Elst12,r                      0.04739004 [mEh]       0.02973770 [kcal/mol]       0.12442254 [kJ/mol]

    Exchange                        0.01193185 [mEh]       0.00748735 [kcal/mol]       0.03132706 [kJ/mol]
      Exch10                        0.01239677 [mEh]       0.00777909 [kcal/mol]       0.03254770 [kJ/mol]
      Exch10(S^2)                   0.01239652 [mEh]       0.00777893 [kcal/mol]       0.03254705 [kJ/mol]
      Exch11(S^2)                   0.00046030 [mEh]       0.00028884 [kcal/mol]       0.00120853 [kJ/mol]
      Exch12(S^2)                  -0.00092522 [mEh]      -0.00058058 [kcal/mol]      -0.00242917 [kJ/mol]

    Induction                      -0.01329048 [mEh]      -0.00833990 [kcal/mol]      -0.03489415 [kJ/mol]
      Ind20,r                      -0.01562031 [mEh]      -0.00980190 [kcal/mol]      -0.04101113 [kJ/mol]
      Ind22                         0.00109322 [mEh]       0.00068600 [kcal/mol]       0.00287024 [kJ/mol]
      Exch-Ind20,r                  0.00231529 [mEh]       0.00145287 [kcal/mol]       0.00607881 [kJ/mol]
      Exch-Ind22                   -0.00016204 [mEh]      -0.00010168 [kcal/mol]      -0.00042544 [kJ/mol]
      delta HF,r (2)               -0.00091664 [mEh]      -0.00057520 [kcal/mol]      -0.00240663 [kJ/mol]

    Dispersion                     -0.16372271 [mEh]      -0.10273755 [kcal/mol]      -0.42985393 [kJ/mol]
      Disp20                       -0.16488305 [mEh]      -0.10346568 [kcal/mol]      -0.43290040 [kJ/mol]
      Disp21                        0.01110237 [mEh]       0.00696684 [kcal/mol]       0.02914927 [kJ/mol]
      Disp22 (SDQ)                  0.01683177 [mEh]       0.01056210 [kcal/mol]       0.04419181 [kJ/mol]
      Disp22 (T)                   -0.02693283 [mEh]      -0.01690061 [kcal/mol]      -0.07071214 [kJ/mol]
      Est. Disp22 (T)              -0.02864183 [mEh]      -0.01797302 [kcal/mol]      -0.07519911 [kJ/mol]
      Exch-Disp20                   0.00186802 [mEh]       0.00117220 [kcal/mol]       0.00490450 [kJ/mol]

  Total HF                         -0.33198965 [mEh]      -0.20832665 [kcal/mol]      -0.87163871 [kJ/mol]
  Total SAPT0                      -0.49500468 [mEh]      -0.31062013 [kcal/mol]      -1.29963460 [kJ/mol]
  Total SAPT2                      -0.44714838 [mEh]      -0.28058984 [kcal/mol]      -1.17398790 [kJ/mol]
  Total SAPT2+                     -0.44785606 [mEh]      -0.28103392 [kcal/mol]      -1.17584593 [kJ/mol]

  Special recipe for scaled SAPT0 (see Manual):
    Electrostatics sSAPT0          -0.33016476 [mEh]      -0.20718151 [kcal/mol]      -0.86684746 [kJ/mol]
    Exchange sSAPT0                 0.01239677 [mEh]       0.00777909 [kcal/mol]       0.03254770 [kJ/mol]
    Induction sSAPT0               -0.01422152 [mEh]      -0.00892414 [kcal/mol]      -0.03733858 [kJ/mol]
    Dispersion sSAPT0              -0.16301492 [mEh]      -0.10229340 [kcal/mol]      -0.42799560 [kJ/mol]
  Total sSAPT0                     -0.49500443 [mEh]      -0.31061997 [kcal/mol]      -1.29963394 [kJ/mol]
  --------------------------------------------------------------------------------------------------------

*** Psi4 exiting successfully. Buy a developer a beer!
