                               Psi4 1.4a2.dev224

  ==> Input File <==

--------------------------------------------------------------------------
#Generated by lconvert.py for sapt job

memory 50 GB

molecule  {
0 1
  C      -1.635460   -0.589710    0.000260
  C      -1.253730    0.687370   -0.000210
  H      -1.799160   -1.127790   -0.922420
  H      -1.798090   -1.127430    0.923340
  H      -1.091050    1.226750    0.921740
  H      -1.092110    1.226260   -0.922630
--
0 1
  N       2.477090    0.036720   -0.000440
  H       2.860460   -0.433470    0.809020
  H       1.486430   -0.172250   -0.001880
  H       2.864240   -0.439500   -0.804570
units angstrom
no_reorient
symmetry c1
}

set {
scf_type DF
basis aug-cc-pvtz
freeze_core True
guess SAD
}
energy('sapt2+')
--------------------------------------------------------------------------

  //              Dimer HF             //
    Molecular point group: c1
  Charge       = 0
  Multiplicity = 1
  Basis Set: AUG-CC-PVTZ
    Blend: AUG-CC-PVTZ
  Basis Set: (AUG-CC-PVTZ AUX)
    Blend: AUG-CC-PVTZ-JKFIT
  @DF-RHF Final Energy:  -134.28554881292490
    Total Energy =                       -134.2855488129249011
  //            Monomer A HF           //
    Molecular point group: c1
  Multiplicity = 1
  Basis Set: AUG-CC-PVTZ
    Blend: AUG-CC-PVTZ
  Basis Set: (AUG-CC-PVTZ AUX)
    Blend: AUG-CC-PVTZ-JKFIT
  @DF-RHF Final Energy:   -78.06475719145499
    Total Energy =                        -78.0647571914549872
  //            Monomer B HF           //
    Molecular point group: c1

    Geometry (in Angstrom), charge = 0, multiplicity = 1:

       Center              X                  Y                   Z               Mass
    ------------   -----------------  -----------------  -----------------  -----------------
      Gh(C)          -1.667829721162    -0.608176298871     0.000325271812    12.000000000000
      Gh(C)          -1.286099721162     0.668903701129    -0.000144728188    12.000000000000
      Gh(H)          -1.831529721162    -1.146256298871    -0.922354728188     1.007825032230
      Gh(H)          -1.830459721162    -1.145896298871     0.923405271812     1.007825032230
      Gh(H)          -1.123419721162     1.208283701129     0.921805271812     1.007825032230
      Gh(H)          -1.124479721162     1.207793701129    -0.922564728188     1.007825032230
         N            2.444720278838     0.018253701129    -0.000374728188    14.003074004430
         H            2.828090278838    -0.451936298871     0.809085271812     1.007825032230
         H            1.454060278838    -0.190716298871    -0.001814728188     1.007825032230
         H            2.831870278838    -0.457966298871    -0.804504728188     1.007825032230

  Charge       = 0
  Multiplicity = 1
  Basis Set: AUG-CC-PVTZ
    Blend: AUG-CC-PVTZ
  Basis Set: (AUG-CC-PVTZ AUX)
    Blend: AUG-CC-PVTZ-JKFIT

    Orbital Energies [Eh]
    ---------------------

    Doubly Occupied:

       1A    -15.542210     2A     -1.144029     3A     -0.627927
       4A     -0.627491     5A     -0.431794

  @DF-RHF Final Energy:   -56.22024318915406

   => Energetics <=

    Nuclear Repulsion Energy =             11.9649104359613165
    One-Electron Energy =                 -99.6234026167058033
    Two-Electron Energy =                  31.4382489915904273
    Total Energy =                        -56.2202431891540613

  Dipole Moment: [D]
     X:    -0.3106      Y:    -1.6244      Z:     0.0054     Total:     1.6538

    SAPT Results
  --------------------------------------------------------------------------------------------------------
    Electrostatics                 -1.88846481 [mEh]      -1.18502956 [kcal/mol]      -4.95816369 [kJ/mol]
      Elst10,r                     -2.14087943 [mEh]      -1.34342213 [kcal/mol]      -5.62087817 [kJ/mol]
      Elst12,r                      0.25241462 [mEh]       0.15839256 [kcal/mol]       0.66271449 [kJ/mol]

    Exchange                        2.02784804 [mEh]       1.27249386 [kcal/mol]       5.32411430 [kJ/mol]
      Exch10                        2.05085284 [mEh]       1.28692958 [kcal/mol]       5.38451338 [kJ/mol]
      Exch10(S^2)                   2.04655771 [mEh]       1.28423435 [kcal/mol]       5.37323652 [kJ/mol]
      Exch11(S^2)                   0.09538054 [mEh]       0.05985219 [kcal/mol]       0.25042158 [kJ/mol]
      Exch12(S^2)                  -0.11838534 [mEh]      -0.07428792 [kcal/mol]      -0.31082066 [kJ/mol]

    Induction                      -0.44545949 [mEh]      -0.27953005 [kcal/mol]      -1.16955373 [kJ/mol]
      Ind20,r                      -0.73328724 [mEh]      -0.46014469 [kcal/mol]      -1.92524539 [kJ/mol]
      Ind22                         0.03888928 [mEh]       0.02440339 [kcal/mol]       0.10210380 [kJ/mol]
      Exch-Ind20,r                  0.48917609 [mEh]       0.30696263 [kcal/mol]       1.28433165 [kJ/mol]
      Exch-Ind22                   -0.02594305 [mEh]      -0.01627951 [kcal/mol]      -0.06811347 [kJ/mol]
      delta HF,r (2)               -0.21429457 [mEh]      -0.13447187 [kcal/mol]      -0.56263032 [kJ/mol]

    Dispersion                     -1.78323034 [mEh]      -1.11899393 [kcal/mol]      -4.68187062 [kJ/mol]
      Disp20                       -1.96179473 [mEh]      -1.23104478 [kcal/mol]      -5.15069135 [kJ/mol]
      Disp21                        0.07331110 [mEh]       0.04600341 [kcal/mol]       0.19247826 [kJ/mol]
      Disp22 (SDQ)                  0.20721462 [mEh]       0.13002914 [kcal/mol]       0.54404190 [kJ/mol]
      Disp22 (T)                   -0.27729357 [mEh]      -0.17400434 [kcal/mol]      -0.72803417 [kJ/mol]
      Est. Disp22 (T)              -0.32030717 [mEh]      -0.20099578 [kcal/mol]      -0.84096636 [kJ/mol]
      Exch-Disp20                   0.21834584 [mEh]       0.13701408 [kcal/mol]       0.57326692 [kJ/mol]

  Total HF                         -0.54843232 [mEh]      -0.34414647 [kcal/mol]      -1.43990885 [kJ/mol]
  Total SAPT0                      -2.29188120 [mEh]      -1.43817717 [kcal/mol]      -6.01733327 [kJ/mol]
  Total SAPT2                      -2.04952515 [mEh]      -1.28609645 [kcal/mol]      -5.38102754 [kJ/mol]
  Total SAPT2+                     -2.08930660 [mEh]      -1.31105969 [kcal/mol]      -5.48547373 [kJ/mol]

  Special recipe for scaled SAPT0 (see Manual):
    Electrostatics sSAPT0          -2.14087943 [mEh]      -1.34342213 [kcal/mol]      -5.62087817 [kJ/mol]
    Exchange sSAPT0                 2.05085284 [mEh]       1.28692958 [kcal/mol]       5.38451338 [kJ/mol]
    Induction sSAPT0               -0.45531934 [mEh]      -0.28571720 [kcal/mol]      -1.19544076 [kJ/mol]
    Dispersion sSAPT0              -1.74207127 [mEh]      -1.09316622 [kcal/mol]      -4.57380748 [kJ/mol]
  Total sSAPT0                     -2.28741720 [mEh]      -1.43537596 [kcal/mol]      -6.00561303 [kJ/mol]
  --------------------------------------------------------------------------------------------------------

*** Psi4 exiting successfully. Buy a developer a beer!
