                               Psi4 1.4a2.dev224

  ==> Input File <==

--------------------------------------------------------------------------
#Generated by lconvert.py for sapt job

memory 50 GB

molecule  {
0 1
  C      -1.635460   -0.589710    0.000260
  C      -1.253730    0.687370   -0.000210
  H      -1.799160   -1.127790   -0.922420
  H      -1.798090   -1.127430    0.923340
  H      -1.091050    1.226750    0.921740
  H      -1.092110    1.226260   -0.922630
--
0 1
  N       1.750060    0.038980   -0.000350
  H       2.133430   -0.431210    0.809100
  H       0.759400   -0.169990   -0.001800
  H       2.137210   -0.437240   -0.804490
units angstrom
no_reorient
symmetry c1
}

set {
scf_type DF
basis aug-cc-pvtz
freeze_core True
guess SAD
}
energy('sapt2+')
--------------------------------------------------------------------------

  //              Dimer HF             //
    Molecular point group: c1
  Charge       = 0
  Multiplicity = 1
  Basis Set: AUG-CC-PVTZ
    Blend: AUG-CC-PVTZ
  Basis Set: (AUG-CC-PVTZ AUX)
    Blend: AUG-CC-PVTZ-JKFIT
  @DF-RHF Final Energy:  -134.27924876360166
    Total Energy =                       -134.2792487636016574
  //            Monomer A HF           //
    Molecular point group: c1
  Multiplicity = 1
  Basis Set: AUG-CC-PVTZ
    Blend: AUG-CC-PVTZ
  Basis Set: (AUG-CC-PVTZ AUX)
    Blend: AUG-CC-PVTZ-JKFIT
  @DF-RHF Final Energy:   -78.06480241837647
    Total Energy =                        -78.0648024183764733
  //            Monomer B HF           //
    Molecular point group: c1

    Geometry (in Angstrom), charge = 0, multiplicity = 1:

       Center              X                  Y                   Z               Mass
    ------------   -----------------  -----------------  -----------------  -----------------
      Gh(C)          -1.393098188155    -0.609030312137     0.000291933455    12.000000000000
      Gh(C)          -1.011368188155     0.668049687863    -0.000178066545    12.000000000000
      Gh(H)          -1.556798188155    -1.147110312137    -0.922388066545     1.007825032230
      Gh(H)          -1.555728188155    -1.146750312137     0.923371933455     1.007825032230
      Gh(H)          -0.848688188155     1.207429687863     0.921771933455     1.007825032230
      Gh(H)          -0.849748188155     1.206939687863    -0.922598066545     1.007825032230
         N            1.992421811845     0.019659687863    -0.000318066545    14.003074004430
         H            2.375791811845    -0.450530312137     0.809131933455     1.007825032230
         H            1.001761811845    -0.189310312137    -0.001768066545     1.007825032230
         H            2.379571811845    -0.456560312137    -0.804458066545     1.007825032230

  Charge       = 0
  Multiplicity = 1
  Basis Set: AUG-CC-PVTZ
    Blend: AUG-CC-PVTZ
  Basis Set: (AUG-CC-PVTZ AUX)
    Blend: AUG-CC-PVTZ-JKFIT

    Orbital Energies [Eh]
    ---------------------

    Doubly Occupied:

       1A    -15.542198     2A     -1.144028     3A     -0.627924
       4A     -0.627486     5A     -0.431792

  @DF-RHF Final Energy:   -56.22026726915567

   => Energetics <=

    Nuclear Repulsion Energy =             11.9649105762507908
    One-Electron Energy =                 -99.6234997467404071
    Two-Electron Energy =                  31.4383219013339534
    Total Energy =                        -56.2202672691556700

  Dipole Moment: [D]
     X:    -0.3107      Y:    -1.6247      Z:     0.0054     Total:     1.6541

    SAPT Results
  --------------------------------------------------------------------------------------------------------
    Electrostatics                 -8.23836895 [mEh]      -5.16965457 [kcal/mol]     -21.62983471 [kJ/mol]
      Elst10,r                     -8.95629351 [mEh]      -5.62015903 [kcal/mol]     -23.51474538 [kJ/mol]
      Elst12,r                      0.71792456 [mEh]       0.45050446 [kcal/mol]       1.88491066 [kJ/mol]

    Exchange                       17.95485943 [mEh]      11.26684440 [kcal/mol]      47.14047695 [kJ/mol]
      Exch10                       18.05520027 [mEh]      11.32980922 [kcal/mol]      47.40392178 [kJ/mol]
      Exch10(S^2)                  17.79795842 [mEh]      11.16838752 [kcal/mol]      46.72853339 [kJ/mol]
      Exch11(S^2)                   0.79961217 [mEh]       0.50176421 [kcal/mol]       2.09938146 [kJ/mol]
      Exch12(S^2)                  -0.89995300 [mEh]      -0.56472904 [kcal/mol]      -2.36282628 [kJ/mol]

    Induction                      -3.23744819 [mEh]      -2.03152941 [kcal/mol]      -8.49991904 [kJ/mol]
      Ind20,r                      -6.72482342 [mEh]      -4.21989041 [kcal/mol]     -17.65602146 [kJ/mol]
      Ind22                         0.19570675 [mEh]       0.12280784 [kcal/mol]       0.51382800 [kJ/mol]
      Exch-Ind20,r                  5.33198282 [mEh]       3.34586973 [kcal/mol]      13.99911896 [kJ/mol]
      Exch-Ind22                   -0.15517211 [mEh]      -0.09737197 [kcal/mol]      -0.40740431 [kJ/mol]
      delta HF,r (2)               -1.88514222 [mEh]      -1.18294461 [kcal/mol]      -4.94944023 [kJ/mol]

    Dispersion                     -6.09326264 [mEh]      -3.82358003 [kcal/mol]     -15.99785886 [kJ/mol]
      Disp20                       -7.61637578 [mEh]      -4.77934796 [kcal/mol]     -19.99679186 [kJ/mol]
      Disp21                        0.41783559 [mEh]       0.26219579 [kcal/mol]       1.09702719 [kJ/mol]
      Disp22 (SDQ)                  0.74055118 [mEh]       0.46470288 [kcal/mol]       1.94431686 [kJ/mol]
      Disp22 (T)                   -0.98683707 [mEh]      -0.61924961 [kcal/mol]      -2.59094038 [kJ/mol]
      Est. Disp22 (T)              -1.14225348 [mEh]      -0.71677488 [kcal/mol]      -2.99898611 [kJ/mol]
      Exch-Disp20                   1.50697985 [mEh]       0.94564413 [kcal/mol]       3.95657506 [kJ/mol]

  Total HF                          5.82092393 [mEh]       3.65268491 [kcal/mol]      15.28283367 [kJ/mol]
  Total SAPT0                      -0.28847200 [mEh]      -0.18101891 [kcal/mol]      -0.75738313 [kJ/mol]
  Total SAPT2                       0.36964636 [mEh]       0.23195659 [kcal/mol]       0.97050639 [kJ/mol]
  Total SAPT2+                      0.38577965 [mEh]       0.24208039 [kcal/mol]       1.01286434 [kJ/mol]

  Special recipe for scaled SAPT0 (see Manual):
    Electrostatics sSAPT0          -8.95629351 [mEh]      -5.62015903 [kcal/mol]     -23.51474538 [kJ/mol]
    Exchange sSAPT0                18.05520027 [mEh]      11.32980922 [kcal/mol]      47.40392178 [kJ/mol]
    Induction sSAPT0               -3.04342855 [mEh]      -1.90978025 [kcal/mol]      -7.99052055 [kJ/mol]
    Dispersion sSAPT0              -6.04310379 [mEh]      -3.79210488 [kcal/mol]     -15.86616681 [kJ/mol]
  Total sSAPT0                      0.01237443 [mEh]       0.00776507 [kcal/mol]       0.03248905 [kJ/mol]
  --------------------------------------------------------------------------------------------------------

*** Psi4 exiting successfully. Buy a developer a beer!
