                               Psi4 1.4a2.dev224

  ==> Input File <==

--------------------------------------------------------------------------
#Generated by lconvert.py for sapt job

memory 50 GB

molecule  {
0 1
  C      -1.635460   -0.589710    0.000260
  C      -1.253730    0.687370   -0.000210
  H      -1.799160   -1.127790   -0.922420
  H      -1.798090   -1.127430    0.923340
  H      -1.091050    1.226750    0.921740
  H      -1.092110    1.226260   -0.922630
--
0 1
  N       1.449270    0.039910   -0.000320
  H       1.832650   -0.430280    0.809140
  H       0.458610   -0.169050   -0.001760
  H       1.836430   -0.436300   -0.804450
units angstrom
no_reorient
symmetry c1
}

set {
scf_type DF
basis aug-cc-pvtz
freeze_core True
guess SAD
}
energy('sapt2+')
--------------------------------------------------------------------------

  //              Dimer HF             //
    Molecular point group: c1
  Charge       = 0
  Multiplicity = 1
  Basis Set: AUG-CC-PVTZ
    Blend: AUG-CC-PVTZ
  Basis Set: (AUG-CC-PVTZ AUX)
    Blend: AUG-CC-PVTZ-JKFIT
  @DF-RHF Final Energy:  -134.26770207746625
    Total Energy =                       -134.2677020774662537
  //            Monomer A HF           //
    Molecular point group: c1
  Multiplicity = 1
  Basis Set: AUG-CC-PVTZ
    Blend: AUG-CC-PVTZ
  Basis Set: (AUG-CC-PVTZ AUX)
    Blend: AUG-CC-PVTZ-JKFIT
  @DF-RHF Final Energy:   -78.06481707216578
    Total Energy =                        -78.0648170721657806
  //            Monomer B HF           //
    Molecular point group: c1

    Geometry (in Angstrom), charge = 0, multiplicity = 1:

       Center              X                  Y                   Z               Mass
    ------------   -----------------  -----------------  -----------------  -----------------
      Gh(C)          -1.279435515942    -0.609382189722     0.000279925975    12.000000000000
      Gh(C)          -0.897705515942     0.667697810278    -0.000190074025    12.000000000000
      Gh(H)          -1.443135515942    -1.147462189722    -0.922400074025     1.007825032230
      Gh(H)          -1.442065515942    -1.147102189722     0.923359925975     1.007825032230
      Gh(H)          -0.735025515942     1.207077810278     0.921759925975     1.007825032230
      Gh(H)          -0.736085515942     1.206587810278    -0.922610074025     1.007825032230
         N            1.805294484058     0.020237810278    -0.000300074025    14.003074004430
         H            2.188674484058    -0.449952189722     0.809159925975     1.007825032230
         H            0.814634484058    -0.188722189722    -0.001740074025     1.007825032230
         H            2.192454484058    -0.455972189722    -0.804430074025     1.007825032230

  Charge       = 0
  Multiplicity = 1
  Basis Set: AUG-CC-PVTZ
    Blend: AUG-CC-PVTZ
  Basis Set: (AUG-CC-PVTZ AUX)
    Blend: AUG-CC-PVTZ-JKFIT

    Orbital Energies [Eh]
    ---------------------

    Doubly Occupied:

       1A    -15.542185     2A     -1.144027     3A     -0.627926
       4A     -0.627483     5A     -0.431789

  @DF-RHF Final Energy:   -56.22027997221137

   => Energetics <=

    Nuclear Repulsion Energy =             11.9649035966881510
    One-Electron Energy =                 -99.6235431491210335
    Two-Electron Energy =                  31.4383595802215154
    Total Energy =                        -56.2202799722113724

  Dipole Moment: [D]
     X:    -0.3107      Y:    -1.6247      Z:     0.0054     Total:     1.6541

    SAPT Results
  --------------------------------------------------------------------------------------------------------
    Electrostatics                -17.00147867 [mEh]     -10.66858893 [kcal/mol]     -44.63737610 [kJ/mol]
      Elst10,r                    -18.18305920 [mEh]     -11.41004191 [kcal/mol]     -47.73961535 [kJ/mol]
      Elst12,r                      1.18158053 [mEh]       0.74145298 [kcal/mol]       3.10223925 [kJ/mol]

    Exchange                       42.95892008 [mEh]      26.95712933 [kcal/mol]     112.78862913 [kJ/mol]
      Exch10                       43.22137977 [mEh]      27.12182527 [kcal/mol]     113.47771694 [kJ/mol]
      Exch10(S^2)                  41.92099332 [mEh]      26.30582046 [kcal/mol]     110.06355281 [kJ/mol]
      Exch11(S^2)                   1.72415609 [mEh]       1.08192428 [kcal/mol]       4.52677118 [kJ/mol]
      Exch12(S^2)                  -1.98661577 [mEh]      -1.24662022 [kcal/mol]      -5.21585899 [kJ/mol]

    Induction                      -7.57419936 [mEh]      -4.75288185 [kcal/mol]     -19.88605767 [kJ/mol]
      Ind20,r                     -17.67525292 [mEh]     -11.09138866 [kcal/mol]     -46.40637014 [kJ/mol]
      Ind22                         0.33833928 [mEh]       0.21231110 [kcal/mol]       0.88830966 [kJ/mol]
      Exch-Ind20,r                 14.06254862 [mEh]       8.82438249 [kcal/mol]      36.92121633 [kJ/mol]
      Exch-Ind22                   -0.26918498 [mEh]      -0.16891612 [kcal/mol]      -0.70674506 [kJ/mol]
      delta HF,r (2)               -4.03064936 [mEh]      -2.52927066 [kcal/mol]     -10.58246845 [kJ/mol]

    Dispersion                    -10.35261751 [mEh]      -6.49636557 [kcal/mol]     -27.18079353 [kJ/mol]
      Disp20                      -13.72796935 [mEh]      -8.61443082 [kcal/mol]     -36.04277856 [kJ/mol]
      Disp21                        0.98490411 [mEh]       0.61803666 [kcal/mol]       2.58586539 [kJ/mol]
      Disp22 (SDQ)                  1.23626980 [mEh]       0.77577101 [kcal/mol]       3.24582590 [kJ/mol]
      Disp22 (T)                   -1.73157981 [mEh]      -1.08658274 [kcal/mol]      -4.54626218 [kJ/mol]
      Est. Disp22 (T)              -1.95971003 [mEh]      -1.22973661 [kcal/mol]      -5.14521798 [kJ/mol]
      Exch-Disp20                   3.11388796 [mEh]       1.95399420 [kcal/mol]       8.17551171 [kJ/mol]

  Total HF                         17.39496691 [mEh]      10.91550653 [kcal/mol]      45.67047933 [kJ/mol]
  Total SAPT0                       6.78088552 [mEh]       4.25506991 [kcal/mol]      17.80321249 [kJ/mol]
  Total SAPT2                       7.76916067 [mEh]       4.87522192 [kcal/mol]      20.39792852 [kJ/mol]
  Total SAPT2+                      8.03062454 [mEh]       5.03929298 [kcal/mol]      21.08440183 [kJ/mol]

  Special recipe for scaled SAPT0 (see Manual):
    Electrostatics sSAPT0         -18.18305920 [mEh]     -11.41004191 [kcal/mol]     -47.73961535 [kJ/mol]
    Exchange sSAPT0                43.22137977 [mEh]      27.12182527 [kcal/mol]     113.47771694 [kJ/mol]
    Induction sSAPT0               -6.29368144 [mEh]      -3.94934473 [kcal/mol]     -16.52405834 [kJ/mol]
    Dispersion sSAPT0             -10.31522176 [mEh]      -6.47289938 [kcal/mol]     -27.08261099 [kJ/mol]
  Total sSAPT0                      8.42941737 [mEh]       5.28953926 [kcal/mol]      22.13143226 [kJ/mol]
  --------------------------------------------------------------------------------------------------------

*** Psi4 exiting successfully. Buy a developer a beer!
