                               Psi4 1.4a2.dev224

  ==> Input File <==

--------------------------------------------------------------------------
#Generated by lconvert.py for sapt job

memory 50 GB

molecule  {
0 1
  C      -1.635460   -0.589710    0.000260
  C      -1.253730    0.687370   -0.000210
  H      -1.799160   -1.127790   -0.922420
  H      -1.798090   -1.127430    0.923340
  H      -1.091050    1.226750    0.921740
  H      -1.092110    1.226260   -0.922630
--
0 1
  N       2.044040    0.038060   -0.000390
  H       2.427420   -0.432130    0.809070
  H       1.053380   -0.170900   -0.001830
  H       2.431190   -0.438150   -0.804520
units angstrom
no_reorient
symmetry c1
}

set {
scf_type DF
basis aug-cc-pvtz
freeze_core True
guess SAD
}
energy('sapt2+')
--------------------------------------------------------------------------

  //              Dimer HF             //
    Molecular point group: c1
  Charge       = 0
  Multiplicity = 1
  Basis Set: AUG-CC-PVTZ
    Blend: AUG-CC-PVTZ
  Basis Set: (AUG-CC-PVTZ AUX)
    Blend: AUG-CC-PVTZ-JKFIT
  @DF-RHF Final Energy:  -134.28368869985326
    Total Energy =                       -134.2836886998532577
  //            Monomer A HF           //
    Molecular point group: c1
  Multiplicity = 1
  Basis Set: AUG-CC-PVTZ
    Blend: AUG-CC-PVTZ
  Basis Set: (AUG-CC-PVTZ AUX)
    Blend: AUG-CC-PVTZ-JKFIT
  @DF-RHF Final Energy:   -78.06479051389755
    Total Energy =                        -78.0647905138975489
  //            Monomer B HF           //
    Molecular point group: c1

    Geometry (in Angstrom), charge = 0, multiplicity = 1:

       Center              X                  Y                   Z               Mass
    ------------   -----------------  -----------------  -----------------  -----------------
      Gh(C)          -1.504188155131    -0.608683108066     0.000306377714    12.000000000000
      Gh(C)          -1.122458155131     0.668396891934    -0.000163622286    12.000000000000
      Gh(H)          -1.667888155131    -1.146763108066    -0.922373622286     1.007825032230
      Gh(H)          -1.666818155131    -1.146403108066     0.923386377714     1.007825032230
      Gh(H)          -0.959778155131     1.207776891934     0.921786377714     1.007825032230
      Gh(H)          -0.960838155131     1.207286891934    -0.922583622286     1.007825032230
         N            2.175311844869     0.019086891934    -0.000343622286    14.003074004430
         H            2.558691844869    -0.451103108066     0.809116377714     1.007825032230
         H            1.184651844869    -0.189873108066    -0.001783622286     1.007825032230
         H            2.562461844869    -0.457123108066    -0.804473622286     1.007825032230

  Charge       = 0
  Multiplicity = 1
  Basis Set: AUG-CC-PVTZ
    Blend: AUG-CC-PVTZ
  Basis Set: (AUG-CC-PVTZ AUX)
    Blend: AUG-CC-PVTZ-JKFIT

    Orbital Energies [Eh]
    ---------------------

    Doubly Occupied:

       1A    -15.542205     2A     -1.144028     3A     -0.627927
       4A     -0.627488     5A     -0.431791

  @DF-RHF Final Energy:   -56.22025602426929

   => Energetics <=

    Nuclear Repulsion Energy =             11.9649191808561834
    One-Electron Energy =                 -99.6234714312259229
    Two-Electron Energy =                  31.4382962261004479
    Total Energy =                        -56.2202560242692897

  Dipole Moment: [D]
     X:    -0.3107      Y:    -1.6246      Z:     0.0054     Total:     1.6540

    SAPT Results
  --------------------------------------------------------------------------------------------------------
    Electrostatics                 -4.29535315 [mEh]      -2.69537479 [kcal/mol]     -11.27744814 [kJ/mol]
      Elst10,r                     -4.75285041 [mEh]      -2.98245866 [kcal/mol]     -12.47860704 [kJ/mol]
      Elst12,r                      0.45749727 [mEh]       0.28708387 [kcal/mol]       1.20115891 [kJ/mol]

    Exchange                        7.51103525 [mEh]       4.71324578 [kcal/mol]      19.72022033 [kJ/mol]
      Exch10                        7.56298149 [mEh]       4.74584253 [kcal/mol]      19.85660516 [kJ/mol]
      Exch10(S^2)                   7.51258075 [mEh]       4.71421559 [kcal/mol]      19.72427805 [kJ/mol]
      Exch11(S^2)                   0.35034883 [mEh]       0.21984721 [kcal/mol]       0.91984073 [kJ/mol]
      Exch12(S^2)                  -0.40229507 [mEh]      -0.25244397 [kcal/mol]      -1.05622556 [kJ/mol]

    Induction                      -1.42689731 [mEh]      -0.89539158 [kcal/mol]      -3.74631837 [kJ/mol]
      Ind20,r                      -2.67984072 [mEh]      -1.68162544 [kcal/mol]      -7.03592083 [kJ/mol]
      Ind22                         0.10530472 [mEh]       0.06607971 [kcal/mol]       0.27647751 [kJ/mol]
      Exch-Ind20,r                  2.03356615 [mEh]       1.27608202 [kcal/mol]       5.33912718 [kJ/mol]
      Exch-Ind22                   -0.07990927 [mEh]      -0.05014383 [kcal/mol]      -0.20980177 [kJ/mol]
      delta HF,r (2)               -0.80601819 [mEh]      -0.50578405 [kcal/mol]      -2.11620047 [kJ/mol]

    Dispersion                     -3.67724250 [mEh]      -2.30750451 [kcal/mol]      -9.65459886 [kJ/mol]
      Disp20                       -4.33917972 [mEh]      -2.72287638 [kcal/mol]     -11.39251478 [kJ/mol]
      Disp21                        0.19060127 [mEh]       0.11960410 [kcal/mol]       0.50042356 [kJ/mol]
      Disp22 (SDQ)                  0.44237568 [mEh]       0.27759493 [kcal/mol]       1.16145720 [kJ/mol]
      Disp22 (T)                   -0.57924381 [mEh]      -0.36348098 [kcal/mol]      -1.52080441 [kJ/mol]
      Est. Disp22 (T)              -0.67726071 [mEh]      -0.42498751 [kcal/mol]      -1.77814776 [kJ/mol]
      Exch-Disp20                   0.70622098 [mEh]       0.44316035 [kcal/mol]       1.85418291 [kJ/mol]

  Total HF                          1.35783831 [mEh]       0.85205641 [kcal/mol]       3.56500400 [kJ/mol]
  Total SAPT0                      -2.27512043 [mEh]      -1.42765962 [kcal/mol]      -5.97332786 [kJ/mol]
  Total SAPT2                      -1.84417395 [mEh]      -1.15723663 [kcal/mol]      -4.84187804 [kJ/mol]
  Total SAPT2+                     -1.88845771 [mEh]      -1.18502510 [kcal/mol]      -4.95814504 [kJ/mol]

  Special recipe for scaled SAPT0 (see Manual):
    Electrostatics sSAPT0          -4.75285041 [mEh]      -2.98245866 [kcal/mol]     -12.47860704 [kJ/mol]
    Exchange sSAPT0                 7.56298149 [mEh]       4.74584253 [kcal/mol]      19.85660516 [kJ/mol]
    Induction sSAPT0               -1.41108893 [mEh]      -0.88547167 [kcal/mol]      -3.70481346 [kJ/mol]
    Dispersion sSAPT0              -3.61864939 [mEh]      -2.27073678 [kcal/mol]      -9.50076267 [kJ/mol]
  Total sSAPT0                     -2.21960724 [mEh]      -1.39282457 [kcal/mol]      -5.82757801 [kJ/mol]
  --------------------------------------------------------------------------------------------------------

*** Psi4 exiting successfully. Buy a developer a beer!
