                               Psi4 1.4a2.dev224

  ==> Input File <==

--------------------------------------------------------------------------
#Generated by lconvert.py for sapt job

memory 50 GB

molecule  {
0 1
  C      -1.635460   -0.589710    0.000260
  C      -1.253730    0.687370   -0.000210
  H      -1.799160   -1.127790   -0.922420
  H      -1.798090   -1.127430    0.923340
  H      -1.091050    1.226750    0.921740
  H      -1.092110    1.226260   -0.922630
--
0 1
  N       2.619960    0.036270   -0.000460
  H       3.003330   -0.433920    0.809000
  H       1.629300   -0.172690   -0.001900
  H       3.007110   -0.439940   -0.804590
units angstrom
no_reorient
symmetry c1
}

set {
scf_type DF
basis aug-cc-pvtz
freeze_core True
guess SAD
}
energy('sapt2+')
--------------------------------------------------------------------------

  //              Dimer HF             //
    Molecular point group: c1
  Charge       = 0
  Multiplicity = 1
  Basis Set: AUG-CC-PVTZ
    Blend: AUG-CC-PVTZ
  Basis Set: (AUG-CC-PVTZ AUX)
    Blend: AUG-CC-PVTZ-JKFIT
  @DF-RHF Final Energy:  -134.28568945689750
    Total Energy =                       -134.2856894568975008
  //            Monomer A HF           //
    Molecular point group: c1
  Multiplicity = 1
  Basis Set: AUG-CC-PVTZ
    Blend: AUG-CC-PVTZ
  Basis Set: (AUG-CC-PVTZ AUX)
    Blend: AUG-CC-PVTZ-JKFIT
  @DF-RHF Final Energy:   -78.06475027171068
    Total Energy =                        -78.0647502717106789
  //            Monomer B HF           //
    Molecular point group: c1

    Geometry (in Angstrom), charge = 0, multiplicity = 1:

       Center              X                  Y                   Z               Mass
    ------------   -----------------  -----------------  -----------------  -----------------
      Gh(C)          -1.721817719073    -0.608006699329     0.000332829452    12.000000000000
      Gh(C)          -1.340087719073     0.669073300671    -0.000137170548    12.000000000000
      Gh(H)          -1.885517719073    -1.146086699329    -0.922347170548     1.007825032230
      Gh(H)          -1.884447719073    -1.145726699329     0.923412829452     1.007825032230
      Gh(H)          -1.177407719073     1.208453300671     0.921812829452     1.007825032230
      Gh(H)          -1.178467719073     1.207963300671    -0.922557170548     1.007825032230
         N            2.533602280927     0.017973300671    -0.000387170548    14.003074004430
         H            2.916972280927    -0.452216699329     0.809072829452     1.007825032230
         H            1.542942280927    -0.190986699329    -0.001827170548     1.007825032230
         H            2.920752280927    -0.458236699329    -0.804517170548     1.007825032230

  Charge       = 0
  Multiplicity = 1
  Basis Set: AUG-CC-PVTZ
    Blend: AUG-CC-PVTZ
  Basis Set: (AUG-CC-PVTZ AUX)
    Blend: AUG-CC-PVTZ-JKFIT

    Orbital Energies [Eh]
    ---------------------

    Doubly Occupied:

       1A    -15.542210     2A     -1.144030     3A     -0.627929
       4A     -0.627494     5A     -0.431793

  @DF-RHF Final Energy:   -56.22024062323375

   => Energetics <=

    Nuclear Repulsion Energy =             11.9649346160373504
    One-Electron Energy =                 -99.6234357124840386
    Two-Electron Energy =                  31.4382604732129352
    Total Energy =                        -56.2202406232337495

  Dipole Moment: [D]
     X:    -0.3105      Y:    -1.6243      Z:     0.0054     Total:     1.6537

    SAPT Results
  --------------------------------------------------------------------------------------------------------
    Electrostatics                 -1.49608171 [mEh]      -0.93880544 [kcal/mol]      -3.92796198 [kJ/mol]
      Elst10,r                     -1.70714250 [mEh]      -1.07124809 [kcal/mol]      -4.48210203 [kJ/mol]
      Elst12,r                      0.21106080 [mEh]       0.13244265 [kcal/mol]       0.55414005 [kJ/mol]

    Exchange                        1.30971027 [mEh]       0.82185560 [kcal/mol]       3.43864384 [kJ/mol]
      Exch10                        1.32707396 [mEh]       0.83275148 [kcal/mol]       3.48423221 [kJ/mol]
      Exch10(S^2)                   1.32519181 [mEh]       0.83157042 [kcal/mol]       3.47929062 [kJ/mol]
      Exch11(S^2)                   0.06115497 [mEh]       0.03837532 [kcal/mol]       0.16056235 [kJ/mol]
      Exch12(S^2)                  -0.07851866 [mEh]      -0.04927120 [kcal/mol]      -0.20615072 [kJ/mol]

    Induction                      -0.30818416 [mEh]      -0.19338848 [kcal/mol]      -0.80913741 [kJ/mol]
      Ind20,r                      -0.48699865 [mEh]      -0.30559626 [kcal/mol]      -1.27861477 [kJ/mol]
      Ind22                         0.02770014 [mEh]       0.01738210 [kcal/mol]       0.07272670 [kJ/mol]
      Exch-Ind20,r                  0.30575083 [mEh]       0.19186154 [kcal/mol]       0.80274870 [kJ/mol]
      Exch-Ind22                   -0.01739089 [mEh]      -0.01091295 [kcal/mol]      -0.04565977 [kJ/mol]
      delta HF,r (2)               -0.13724560 [mEh]      -0.08612291 [kcal/mol]      -0.36033826 [kJ/mol]

    Dispersion                     -1.41317715 [mEh]      -0.88678205 [kcal/mol]      -3.71029610 [kJ/mol]
      Disp20                       -1.52683907 [mEh]      -0.95810598 [kcal/mol]      -4.00871542 [kJ/mol]
      Disp21                        0.05709155 [mEh]       0.03582549 [kcal/mol]       0.14989384 [kJ/mol]
      Disp22 (SDQ)                  0.16208862 [mEh]       0.10171214 [kcal/mol]       0.42556361 [kJ/mol]
      Disp22 (T)                   -0.21969536 [mEh]      -0.13786092 [kcal/mol]      -0.57681010 [kJ/mol]
      Est. Disp22 (T)              -0.25218529 [mEh]      -0.15824866 [kcal/mol]      -0.66211239 [kJ/mol]
      Exch-Disp20                   0.14666704 [mEh]       0.09203496 [kcal/mol]       0.38507426 [kJ/mol]

  Total HF                         -0.69856195 [mEh]      -0.43835424 [kcal/mol]      -1.83407416 [kJ/mol]
  Total SAPT0                      -2.07873398 [mEh]      -1.30442527 [kcal/mol]      -5.45771532 [kJ/mol]
  Total SAPT2                      -1.87472763 [mEh]      -1.17640935 [kcal/mol]      -4.92209671 [kJ/mol]
  Total SAPT2+                     -1.90773275 [mEh]      -1.19712038 [kcal/mol]      -5.00875165 [kJ/mol]

  Special recipe for scaled SAPT0 (see Manual):
    Electrostatics sSAPT0          -1.70714250 [mEh]      -1.07124809 [kcal/mol]      -4.48210203 [kJ/mol]
    Exchange sSAPT0                 1.32707396 [mEh]       0.83275148 [kcal/mol]       3.48423221 [kJ/mol]
    Induction sSAPT0               -0.31718880 [mEh]      -0.19903898 [kcal/mol]      -0.83277908 [kJ/mol]
    Dispersion sSAPT0              -1.37954621 [mEh]      -0.86567832 [kcal/mol]      -3.62199808 [kJ/mol]
  Total sSAPT0                     -2.07680356 [mEh]      -1.30321391 [kcal/mol]      -5.45264699 [kJ/mol]
  --------------------------------------------------------------------------------------------------------

*** Psi4 exiting successfully. Buy a developer a beer!
