                               Psi4 1.4a2.dev224

  ==> Input File <==

--------------------------------------------------------------------------
#Generated by lconvert.py for sapt job

memory 50 GB

molecule  {
0 1
  C      -1.635460   -0.589710    0.000260
  C      -1.253730    0.687370   -0.000210
  H      -1.799160   -1.127790   -0.922420
  H      -1.798090   -1.127430    0.923340
  H      -1.091050    1.226750    0.921740
  H      -1.092110    1.226260   -0.922630
--
0 1
  N       2.333570    0.037160   -0.000420
  H       2.716940   -0.433030    0.809030
  H       1.342910   -0.171800   -0.001860
  H       2.720720   -0.439050   -0.804550
units angstrom
no_reorient
symmetry c1
}

set {
scf_type DF
basis aug-cc-pvtz
freeze_core True
guess SAD
}
energy('sapt2+')
--------------------------------------------------------------------------

  //              Dimer HF             //
    Molecular point group: c1
  Charge       = 0
  Multiplicity = 1
  Basis Set: AUG-CC-PVTZ
    Blend: AUG-CC-PVTZ
  Basis Set: (AUG-CC-PVTZ AUX)
    Blend: AUG-CC-PVTZ-JKFIT
  @DF-RHF Final Energy:  -134.28524917435939
    Total Energy =                       -134.2852491743594214
  //            Monomer A HF           //
    Molecular point group: c1
  Multiplicity = 1
  Basis Set: AUG-CC-PVTZ
    Blend: AUG-CC-PVTZ
  Basis Set: (AUG-CC-PVTZ AUX)
    Blend: AUG-CC-PVTZ-JKFIT
  @DF-RHF Final Energy:   -78.06476753813530
    Total Energy =                        -78.0647675381352997
  //            Monomer B HF           //
    Molecular point group: c1

    Geometry (in Angstrom), charge = 0, multiplicity = 1:

       Center              X                  Y                   Z               Mass
    ------------   -----------------  -----------------  -----------------  -----------------
      Gh(C)          -1.613596099967    -0.608343014288     0.000317937846    12.000000000000
      Gh(C)          -1.231866099967     0.668736985712    -0.000152062154    12.000000000000
      Gh(H)          -1.777296099967    -1.146423014288    -0.922362062154     1.007825032230
      Gh(H)          -1.776226099967    -1.146063014288     0.923397937846     1.007825032230
      Gh(H)          -1.069186099967     1.208116985712     0.921797937846     1.007825032230
      Gh(H)          -1.070246099967     1.207626985712    -0.922572062154     1.007825032230
         N            2.355433900033     0.018526985712    -0.000362062154    14.003074004430
         H            2.738803900033    -0.451663014288     0.809087937846     1.007825032230
         H            1.364773900033    -0.190433014288    -0.001802062154     1.007825032230
         H            2.742583900033    -0.457683014288    -0.804492062154     1.007825032230

  Charge       = 0
  Multiplicity = 1
  Basis Set: AUG-CC-PVTZ
    Blend: AUG-CC-PVTZ
  Basis Set: (AUG-CC-PVTZ AUX)
    Blend: AUG-CC-PVTZ-JKFIT

    Orbital Energies [Eh]
    ---------------------

    Doubly Occupied:

       1A    -15.542207     2A     -1.144031     3A     -0.627929
       4A     -0.627493     5A     -0.431793

  @DF-RHF Final Energy:   -56.22024701388685

   => Energetics <=

    Nuclear Repulsion Energy =             11.9649666311527252
    One-Electron Energy =                 -99.6235214284442350
    Two-Electron Energy =                  31.4383077834046603
    Total Energy =                        -56.2202470138868549

  Dipole Moment: [D]
     X:    -0.3106      Y:    -1.6245      Z:     0.0054     Total:     1.6539

    SAPT Results
  --------------------------------------------------------------------------------------------------------
    Electrostatics                 -2.43202094 [mEh]      -1.52611618 [kcal/mol]      -6.38527011 [kJ/mol]
      Elst10,r                     -2.73668805 [mEh]      -1.71729768 [kcal/mol]      -7.18517349 [kJ/mol]
      Elst12,r                      0.30466711 [mEh]       0.19118150 [kcal/mol]       0.79990338 [kJ/mol]

    Exchange                        3.13862077 [mEh]       1.96951427 [kcal/mol]       8.24044769 [kJ/mol]
      Exch10                        3.16879420 [mEh]       1.98844838 [kcal/mol]       8.31966802 [kJ/mol]
      Exch10(S^2)                   3.15901298 [mEh]       1.98231057 [kcal/mol]       8.29398743 [kJ/mol]
      Exch11(S^2)                   0.14808194 [mEh]       0.09292282 [kcal/mol]       0.38878908 [kJ/mol]
      Exch12(S^2)                  -0.17825537 [mEh]      -0.11185693 [kcal/mol]      -0.46800941 [kJ/mol]

    Induction                      -0.65051684 [mEh]      -0.40820548 [kcal/mol]      -1.70793172 [kJ/mol]
      Ind20,r                      -1.11685554 [mEh]      -0.70083743 [kcal/mol]      -2.93230382 [kJ/mol]
      Ind22                         0.05444994 [mEh]       0.03416785 [kcal/mol]       0.14295830 [kJ/mol]
      Exch-Ind20,r                  0.78432863 [mEh]       0.49217365 [kcal/mol]       2.05925454 [kJ/mol]
      Exch-Ind22                   -0.03823829 [mEh]      -0.02399489 [kcal/mol]      -0.10039462 [kJ/mol]
      delta HF,r (2)               -0.33420158 [mEh]      -0.20971466 [kcal/mol]      -0.87744612 [kJ/mol]

    Dispersion                     -2.25997452 [mEh]      -1.41815542 [kcal/mol]      -5.93356227 [kJ/mol]
      Disp20                       -2.53853758 [mEh]      -1.59295638 [kcal/mol]      -6.66492950 [kJ/mol]
      Disp21                        0.09740292 [mEh]       0.06112126 [kcal/mol]       0.25573134 [kJ/mol]
      Disp22 (SDQ)                  0.26594007 [mEh]       0.16687991 [kcal/mol]       0.69822555 [kJ/mol]
      Disp22 (T)                   -0.35466110 [mEh]      -0.22255320 [kcal/mol]      -0.93116260 [kJ/mol]
      Est. Disp22 (T)              -0.40887804 [mEh]      -0.25657484 [kcal/mol]      -1.07350915 [kJ/mol]
      Exch-Disp20                   0.32409811 [mEh]       0.20337464 [kcal/mol]       0.85091948 [kJ/mol]

  Total HF                         -0.23462234 [mEh]      -0.14722774 [kcal/mol]      -0.61600086 [kJ/mol]
  Total SAPT0                      -2.44906180 [mEh]      -1.53680948 [kcal/mol]      -6.43001088 [kJ/mol]
  Total SAPT2                      -2.15835648 [mEh]      -1.35438914 [kcal/mol]      -5.66676415 [kJ/mol]
  Total SAPT2+                     -2.20389153 [mEh]      -1.38296281 [kcal/mol]      -5.78631641 [kJ/mol]

  Special recipe for scaled SAPT0 (see Manual):
    Electrostatics sSAPT0          -2.73668805 [mEh]      -1.71729768 [kcal/mol]      -7.18517349 [kJ/mol]
    Exchange sSAPT0                 3.16879420 [mEh]       1.98844838 [kcal/mol]       8.31966802 [kJ/mol]
    Induction sSAPT0               -0.65942038 [mEh]      -0.41379253 [kcal/mol]      -1.73130796 [kJ/mol]
    Dispersion sSAPT0              -2.21141963 [mEh]      -1.38768677 [kcal/mol]      -5.80608144 [kJ/mol]
  Total sSAPT0                     -2.43873386 [mEh]      -1.53032860 [kcal/mol]      -6.40289487 [kJ/mol]
  --------------------------------------------------------------------------------------------------------

*** Psi4 exiting successfully. Buy a developer a beer!
