                               Psi4 1.4a2.dev224

  ==> Input File <==

--------------------------------------------------------------------------
#Generated by lconvert.py for sapt job

memory 50 GB

molecule  {
0 1
  C      -1.635460   -0.589710    0.000260
  C      -1.253730    0.687370   -0.000210
  H      -1.799160   -1.127790   -0.922420
  H      -1.798090   -1.127430    0.923340
  H      -1.091050    1.226750    0.921740
  H      -1.092110    1.226260   -0.922630
--
0 1
  N       1.449270    0.039910   -0.000320
  H       1.832650   -0.430280    0.809140
  H       0.458610   -0.169050   -0.001760
  H       1.836430   -0.436300   -0.804450
units angstrom
no_reorient
symmetry c1
}

set {
scf_type DF
basis aug-cc-pvtz
freeze_core True
guess SAD
}
energy('sapt2+')
--------------------------------------------------------------------------

  //              Dimer HF             //
    Molecular point group: c1
  Charge       = 0
  Multiplicity = 1
  Basis Set: AUG-CC-PVTZ
    Blend: AUG-CC-PVTZ
  Basis Set: (AUG-CC-PVTZ AUX)
    Blend: AUG-CC-PVTZ-JKFIT
  @DF-RHF Final Energy:  -134.26770207746625
    Total Energy =                       -134.2677020774662537
  //            Monomer A HF           //
    Molecular point group: c1
  Basis Set: AUG-CC-PVTZ
    Blend: AUG-CC-PVTZ
  Basis Set: (AUG-CC-PVTZ AUX)
    Blend: AUG-CC-PVTZ-JKFIT
  @DF-RHF Final Energy:   -78.06481707216578
    Total Energy =                        -78.0648170721657806
  //            Monomer B HF           //
  Basis Set: AUG-CC-PVTZ
    Blend: AUG-CC-PVTZ
  Basis Set: (AUG-CC-PVTZ AUX)
    Blend: AUG-CC-PVTZ-JKFIT
  @DF-RHF Final Energy:   -56.22027997221137
    Total Energy =                        -56.2202799722113724
*** Psi4 exiting successfully. Buy a developer a beer!
                               Psi4 1.4a2.dev224
  //              Dimer HF             //
  Basis Set: AUG-CC-PVTZ
    Blend: AUG-CC-PVTZ
  Basis Set: (AUG-CC-PVTZ AUX)
    Blend: AUG-CC-PVTZ-JKFIT
  @DF-RHF Final Energy:  -134.27924876360166
    Total Energy =                       -134.2792487636016574
  @DF-RHF Final Energy:   -78.06480241837647
    Total Energy =                        -78.0648024183764733
  @DF-RHF Final Energy:   -56.22026726915567
    Total Energy =                        -56.2202672691556700
*** Psi4 exiting successfully. Buy a developer a beer!
                               Psi4 1.4a2.dev224
  @DF-RHF Final Energy:  -134.28368869985326
    Total Energy =                       -134.2836886998532577
  @DF-RHF Final Energy:   -78.06479051389755
    Total Energy =                        -78.0647905138975489
  @DF-RHF Final Energy:   -56.22025602426929
    Total Energy =                        -56.2202560242692897
                               Psi4 1.4a2.dev224
  @DF-RHF Final Energy:  -134.28468401760045
    Total Energy =                       -134.2846840176004548
  @DF-RHF Final Energy:   -78.06477958986372
    Total Energy =                        -78.0647795898637185
  @DF-RHF Final Energy:   -56.22025102521805
    Total Energy =                        -56.2202510252180474
                               Psi4 1.4a2.dev224
  @DF-RHF Final Energy:  -134.28524917435939
    Total Energy =                       -134.2852491743594214
  @DF-RHF Final Energy:   -78.06476753813530
    Total Energy =                        -78.0647675381352997
  @DF-RHF Final Energy:   -56.22024701388685
    Total Energy =                        -56.2202470138868549
                               Psi4 1.4a2.dev224
  @DF-RHF Final Energy:  -134.28554881292490
    Total Energy =                       -134.2855488129249011
  @DF-RHF Final Energy:   -78.06475719145499
    Total Energy =                        -78.0647571914549872
  @DF-RHF Final Energy:   -56.22024318915406
    Total Energy =                        -56.2202431891540613
                               Psi4 1.4a2.dev224
  @DF-RHF Final Energy:  -134.28568945689750
    Total Energy =                       -134.2856894568975008
  @DF-RHF Final Energy:   -78.06475027171068
    Total Energy =                        -78.0647502717106789
  @DF-RHF Final Energy:   -56.22024062323375
    Total Energy =                        -56.2202406232337495
                               Psi4 1.4a2.dev224
  @DF-RHF Final Energy:  -134.28561866736422
    Total Energy =                       -134.2856186673642469
  @DF-RHF Final Energy:   -78.06473647845870
    Total Energy =                        -78.0647364784586983
  @DF-RHF Final Energy:   -56.22023342495611
    Total Energy =                        -56.2202334249561133
                               Psi4 1.4a2.dev224
  @DF-RHF Final Energy:  -134.28527398456879
    Total Energy =                       -134.2852739845687893
  @DF-RHF Final Energy:   -78.06471361083757
    Total Energy =                        -78.0647136108375719
  //            Monomer B HF           //
  Basis Set: AUG-CC-PVTZ
    Blend: AUG-CC-PVTZ
  Basis Set: (AUG-CC-PVTZ AUX)
    Blend: AUG-CC-PVTZ-JKFIT
  @DF-RHF Final Energy:   -56.22022838408112
    Total Energy =                        -56.2202283840811248
*** Psi4 exiting successfully. Buy a developer a beer!
                               Psi4 1.4a2.dev224
  //              Dimer HF             //
  Basis Set: AUG-CC-PVTZ
    Blend: AUG-CC-PVTZ
  Basis Set: (AUG-CC-PVTZ AUX)
    Blend: AUG-CC-PVTZ-JKFIT
  @DF-RHF Final Energy:  -134.28510620772164
    Total Energy =                       -134.2851062077216397
  //            Monomer A HF           //
  Multiplicity = 1
  Basis Set: AUG-CC-PVTZ
    Blend: AUG-CC-PVTZ
  Basis Set: (AUG-CC-PVTZ AUX)
    Blend: AUG-CC-PVTZ-JKFIT
  @DF-RHF Final Energy:   -78.06471126649865
    Total Energy =                        -78.0647112664986480
  //            Monomer B HF           //
    Molecular point group: c1

    Geometry (in Angstrom), charge = 0, multiplicity = 1:

       Center              X                  Y                   Z               Mass
    ------------   -----------------  -----------------  -----------------  -----------------
      Gh(C)          -2.631092892337    -0.605179694802     0.000438636405    12.000000000000
      Gh(C)          -2.249362892337     0.671900305198    -0.000031363595    12.000000000000
      Gh(H)          -2.794792892337    -1.143259694802    -0.922241363595     1.007825032230
      Gh(H)          -2.793722892337    -1.142899694802     0.923518636405     1.007825032230
      Gh(H)          -2.086682892337     1.211280305198     0.921918636405     1.007825032230
      Gh(H)          -2.087742892337     1.210790305198    -0.922451363595     1.007825032230
         N            4.030567107663     0.013320305198    -0.000561363595    14.003074004430
         H            4.413947107663    -0.456869694802     0.808898636405     1.007825032230
         H            3.039907107663    -0.195649694802    -0.002001363595     1.007825032230
         H            4.417727107663    -0.462899694802    -0.804691363595     1.007825032230

  Charge       = 0
  Multiplicity = 1
  Basis Set: AUG-CC-PVTZ
    Blend: AUG-CC-PVTZ
  Basis Set: (AUG-CC-PVTZ AUX)
    Blend: AUG-CC-PVTZ-JKFIT

    Orbital Energies [Eh]
    ---------------------

    Doubly Occupied:

       1A    -15.542208     2A     -1.144028     3A     -0.627928
       4A     -0.627491     5A     -0.431794

  @DF-RHF Final Energy:   -56.22022545188311

   => Energetics <=

    Nuclear Repulsion Energy =             11.9648794168003842
    One-Electron Energy =                 -99.6233104800995193
    Two-Electron Energy =                  31.4382056114160200
    Total Energy =                        -56.2202254518831097

  Dipole Moment: [D]
     X:    -0.3100      Y:    -1.6234      Z:     0.0054     Total:     1.6527

    SAPT Results
  --------------------------------------------------------------------------------------------------------
    Electrostatics                 -0.14198147 [mEh]      -0.08909471 [kcal/mol]      -0.37277229 [kJ/mol]
      Elst10,r                     -0.16609939 [mEh]      -0.10422894 [kcal/mol]      -0.43609388 [kJ/mol]
      Elst12,r                      0.02411792 [mEh]       0.01513422 [kcal/mol]       0.06332159 [kJ/mol]

    Exchange                        0.00068089 [mEh]       0.00042727 [kcal/mol]       0.00178768 [kJ/mol]
      Exch10                        0.00071823 [mEh]       0.00045069 [kcal/mol]       0.00188570 [kJ/mol]
      Exch10(S^2)                   0.00071822 [mEh]       0.00045069 [kcal/mol]       0.00188570 [kJ/mol]
      Exch11(S^2)                   0.00002261 [mEh]       0.00001419 [kcal/mol]       0.00005936 [kJ/mol]
      Exch12(S^2)                  -0.00005994 [mEh]      -0.00003762 [kcal/mol]      -0.00015738 [kJ/mol]

    Induction                      -0.00381579 [mEh]      -0.00239445 [kcal/mol]      -0.01001836 [kJ/mol]
      Ind20,r                      -0.00423590 [mEh]      -0.00265806 [kcal/mol]      -0.01112134 [kJ/mol]
      Ind22                         0.00030014 [mEh]       0.00018834 [kcal/mol]       0.00078800 [kJ/mol]
      Exch-Ind20,r                  0.00010937 [mEh]       0.00006863 [kcal/mol]       0.00028715 [kJ/mol]
      Exch-Ind22                   -0.00000775 [mEh]      -0.00000486 [kcal/mol]      -0.00002035 [kJ/mol]
      delta HF,r (2)                0.00001835 [mEh]       0.00001151 [kcal/mol]       0.00004817 [kJ/mol]

    Dispersion                     -0.05918744 [mEh]      -0.03714068 [kcal/mol]      -0.15539661 [kJ/mol]
      Disp20                       -0.05988454 [mEh]      -0.03757811 [kcal/mol]      -0.15722683 [kJ/mol]
      Disp21                        0.00511041 [mEh]       0.00320683 [kcal/mol]       0.01341737 [kJ/mol]
      Disp22 (SDQ)                  0.00589364 [mEh]       0.00369832 [kcal/mol]       0.01547375 [kJ/mol]
      Disp22 (T)                   -0.01001950 [mEh]      -0.00628733 [kcal/mol]      -0.02630620 [kJ/mol]
      Est. Disp22 (T)              -0.01042938 [mEh]      -0.00654453 [kcal/mol]      -0.02738233 [kJ/mol]
      Exch-Disp20                   0.00012243 [mEh]       0.00007682 [kcal/mol]       0.00032144 [kJ/mol]

  Total HF                         -0.16948934 [mEh]      -0.10635617 [kcal/mol]      -0.44499420 [kJ/mol]
  Total SAPT0                      -0.22925145 [mEh]      -0.14385746 [kcal/mol]      -0.60189960 [kJ/mol]
  Total SAPT2                      -0.20487848 [mEh]      -0.12856319 [kcal/mol]      -0.53790837 [kJ/mol]
  Total SAPT2+                     -0.20430381 [mEh]      -0.12820258 [kcal/mol]      -0.53639958 [kJ/mol]

  Special recipe for scaled SAPT0 (see Manual):
    Electrostatics sSAPT0          -0.16609939 [mEh]      -0.10422894 [kcal/mol]      -0.43609388 [kJ/mol]
    Exchange sSAPT0                 0.00071823 [mEh]       0.00045069 [kcal/mol]       0.00188570 [kJ/mol]
    Induction sSAPT0               -0.00410818 [mEh]      -0.00257792 [kcal/mol]      -0.01078602 [kJ/mol]
    Dispersion sSAPT0              -0.05976211 [mEh]      -0.03750129 [kcal/mol]      -0.15690540 [kJ/mol]
  Total sSAPT0                     -0.22925145 [mEh]      -0.14385746 [kcal/mol]      -0.60189960 [kJ/mol]
  --------------------------------------------------------------------------------------------------------

*** Psi4 exiting successfully. Buy a developer a beer!
