                               Psi4 1.4a2.dev224

  ==> Input File <==

--------------------------------------------------------------------------
#Generated by lconvert.py for sapt job

memory 50 GB

molecule  {
0 1
  C      -1.635460   -0.589710    0.000260
  C      -1.253730    0.687370   -0.000210
  H      -1.799160   -1.127790   -0.922420
  H      -1.798090   -1.127430    0.923340
  H      -1.091050    1.226750    0.921740
  H      -1.092110    1.226260   -0.922630
--
0 1
  N       3.221520    0.034400   -0.000530
  H       3.604890   -0.435790    0.808930
  H       2.230860   -0.174570   -0.001970
  H       3.608670   -0.441820   -0.804660
units angstrom
no_reorient
symmetry c1
}

set {
scf_type DF
basis aug-cc-pvtz
freeze_core True
guess SAD
}
energy('sapt2+')
--------------------------------------------------------------------------

  //              Dimer HF             //
    Molecular point group: c1
  Charge       = 0
  Multiplicity = 1
  Basis Set: AUG-CC-PVTZ
    Blend: AUG-CC-PVTZ
  Basis Set: (AUG-CC-PVTZ AUX)
    Blend: AUG-CC-PVTZ-JKFIT
  @DF-RHF Final Energy:  -134.28561866736422
    Total Energy =                       -134.2856186673642469
  //            Monomer A HF           //
    Molecular point group: c1
  Multiplicity = 1
  Basis Set: AUG-CC-PVTZ
    Blend: AUG-CC-PVTZ
  Basis Set: (AUG-CC-PVTZ AUX)
    Blend: AUG-CC-PVTZ-JKFIT
  @DF-RHF Final Energy:   -78.06473647845870
    Total Energy =                        -78.0647364784586983
  //            Monomer B HF           //
    Molecular point group: c1

    Geometry (in Angstrom), charge = 0, multiplicity = 1:

       Center              X                  Y                   Z               Mass
    ------------   -----------------  -----------------  -----------------  -----------------
      Gh(C)          -1.949136400552    -0.607299612687     0.000359281190    12.000000000000
      Gh(C)          -1.567406400552     0.669780387313    -0.000110718810    12.000000000000
      Gh(H)          -2.112836400552    -1.145379612687    -0.922320718810     1.007825032230
      Gh(H)          -2.111766400552    -1.145019612687     0.923439281190     1.007825032230
      Gh(H)          -1.404726400552     1.209160387313     0.921839281190     1.007825032230
      Gh(H)          -1.405786400552     1.208670387313    -0.922530718810     1.007825032230
         N            2.907843599448     0.016810387313    -0.000430718810    14.003074004430
         H            3.291213599448    -0.453379612687     0.809029281190     1.007825032230
         H            1.917183599448    -0.192159612687    -0.001870718810     1.007825032230
         H            3.294993599448    -0.459409612687    -0.804560718810     1.007825032230

  Charge       = 0
  Multiplicity = 1
  Basis Set: AUG-CC-PVTZ
    Blend: AUG-CC-PVTZ
  Basis Set: (AUG-CC-PVTZ AUX)
    Blend: AUG-CC-PVTZ-JKFIT

    Orbital Energies [Eh]
    ---------------------

    Doubly Occupied:

       1A    -15.542212     2A     -1.144032     3A     -0.627929
       4A     -0.627495     5A     -0.431795

  @DF-RHF Final Energy:   -56.22023342495611

   => Energetics <=

    Nuclear Repulsion Energy =             11.9649104359613183
    One-Electron Energy =                 -99.6233591081326182
    Two-Electron Energy =                  31.4382152472151901
    Total Energy =                        -56.2202334249561133

  Dipole Moment: [D]
     X:    -0.3103      Y:    -1.6240      Z:     0.0054     Total:     1.6534

    SAPT Results
  --------------------------------------------------------------------------------------------------------
    Electrostatics                 -0.67204281 [mEh]      -0.42171323 [kcal/mol]      -1.76444815 [kJ/mol]
      Elst10,r                     -0.77985483 [mEh]      -0.48936630 [kcal/mol]      -2.04750859 [kJ/mol]
      Elst12,r                      0.10781203 [mEh]       0.06765307 [kcal/mol]       0.28306044 [kJ/mol]

    Exchange                        0.20383555 [mEh]       0.12790874 [kcal/mol]       0.53517017 [kJ/mol]
      Exch10                        0.20848405 [mEh]       0.13082572 [kcal/mol]       0.54737480 [kJ/mol]
      Exch10(S^2)                   0.20842861 [mEh]       0.13079093 [kcal/mol]       0.54722923 [kJ/mol]
      Exch11(S^2)                   0.00898081 [mEh]       0.00563554 [kcal/mol]       0.02357912 [kJ/mol]
      Exch12(S^2)                  -0.01362931 [mEh]      -0.00855252 [kcal/mol]      -0.03578375 [kJ/mol]

    Induction                      -0.07355121 [mEh]      -0.04615408 [kcal/mol]      -0.19310867 [kJ/mol]
      Ind20,r                      -0.09928824 [mEh]      -0.06230431 [kcal/mol]      -0.26068125 [kJ/mol]
      Ind22                         0.00669318 [mEh]       0.00420003 [kcal/mol]       0.01757294 [kJ/mol]
      Exch-Ind20,r                  0.04229574 [mEh]       0.02654098 [kcal/mol]       0.11104746 [kJ/mol]
      Exch-Ind22                   -0.00285122 [mEh]      -0.00178917 [kcal/mol]      -0.00748589 [kJ/mol]
      delta HF,r (2)               -0.02040066 [mEh]      -0.01280161 [kcal/mol]      -0.05356194 [kJ/mol]

    Dispersion                     -0.55610777 [mEh]      -0.34896289 [kcal/mol]      -1.46006075 [kJ/mol]
      Disp20                       -0.57157357 [mEh]      -0.35866783 [kcal/mol]      -1.50066619 [kJ/mol]
      Disp21                        0.02609947 [mEh]       0.01637766 [kcal/mol]       0.06852414 [kJ/mol]
      Disp22 (SDQ)                  0.06052319 [mEh]       0.03797888 [kcal/mol]       0.15890362 [kJ/mol]
      Disp22 (T)                   -0.08763316 [mEh]      -0.05499063 [kcal/mol]      -0.23008082 [kJ/mol]
      Est. Disp22 (T)              -0.09755586 [mEh]      -0.06121723 [kcal/mol]      -0.25613289 [kJ/mol]
      Exch-Disp20                   0.02639900 [mEh]       0.01656562 [kcal/mol]       0.06931056 [kJ/mol]

  Total HF                         -0.64876395 [mEh]      -0.40710552 [kcal/mol]      -1.70332951 [kJ/mol]
  Total SAPT0                      -1.19393852 [mEh]      -0.74920773 [kcal/mol]      -3.13468515 [kJ/mol]
  Total SAPT2                      -1.08693303 [mEh]      -0.68206078 [kcal/mol]      -2.85374229 [kJ/mol]
  Total SAPT2+                     -1.09786624 [mEh]      -0.68892146 [kcal/mol]      -2.88244741 [kJ/mol]

  Special recipe for scaled SAPT0 (see Manual):
    Electrostatics sSAPT0          -0.77985483 [mEh]      -0.48936630 [kcal/mol]      -2.04750859 [kJ/mol]
    Exchange sSAPT0                 0.20848405 [mEh]       0.13082572 [kcal/mol]       0.54737480 [kJ/mol]
    Induction sSAPT0               -0.07735940 [mEh]      -0.04854376 [kcal/mol]      -0.20310709 [kJ/mol]
    Dispersion sSAPT0              -0.54515349 [mEh]      -0.34208898 [kcal/mol]      -1.43130030 [kJ/mol]
  Total sSAPT0                     -1.19388368 [mEh]      -0.74917332 [kcal/mol]      -3.13454117 [kJ/mol]
  --------------------------------------------------------------------------------------------------------

*** Psi4 exiting successfully. Buy a developer a beer!
