                               Psi4 1.4a2.dev224

  ==> Input File <==

--------------------------------------------------------------------------
#Generated by lconvert.py for sapt job

memory 50 GB

molecule  {
0 1
  C      -1.259210    0.661370   -0.001290
  C      -1.813830   -0.550850    0.000430
  H      -1.873310    1.551250   -0.002520
  H      -0.184860    0.787060   -0.002030
  H      -1.204800   -1.444290    0.003160
  H      -2.886280   -0.685600    0.000960
--
0 1
  N       3.221860   -0.028390   -0.003310
  H       4.112670    0.450870   -0.033020
  H       3.243710   -0.594520    0.835280
  H       3.229640   -0.678680   -0.778780
units angstrom
no_reorient
symmetry c1
}

set {
scf_type DF
basis aug-cc-pvtz
freeze_core True
guess SAD
}
energy('sapt2+')
--------------------------------------------------------------------------

  //              Dimer HF             //
    Molecular point group: c1
  Charge       = 0
  Multiplicity = 1
  Basis Set: AUG-CC-PVTZ
    Blend: AUG-CC-PVTZ
  Basis Set: (AUG-CC-PVTZ AUX)
    Blend: AUG-CC-PVTZ-JKFIT
  @DF-RHF Final Energy:  -134.28555164784666
    Total Energy =                       -134.2855516478466598
  //            Monomer A HF           //
    Molecular point group: c1
  Multiplicity = 1
  Basis Set: AUG-CC-PVTZ
    Blend: AUG-CC-PVTZ
  Basis Set: (AUG-CC-PVTZ AUX)
    Blend: AUG-CC-PVTZ-JKFIT
  @DF-RHF Final Energy:   -78.06465225834174
    Total Energy =                        -78.0646522583417379
  //            Monomer B HF           //
    Molecular point group: c1

    Geometry (in Angstrom), charge = 0, multiplicity = 1:

       Center              X                  Y                   Z               Mass
    ------------   -----------------  -----------------  -----------------  -----------------
      Gh(C)          -1.541312943158     0.654490424770    -0.000547847222    12.000000000000
      Gh(C)          -2.095932943158    -0.557729575230     0.001172152778    12.000000000000
      Gh(H)          -2.155412943158     1.544370424770    -0.001777847222     1.007825032230
      Gh(H)          -0.466962943158     0.780180424770    -0.001287847222     1.007825032230
      Gh(H)          -1.486902943158    -1.451169575230     0.003902152778     1.007825032230
      Gh(H)          -3.168382943158    -0.692479575230     0.001702152778     1.007825032230
         N            2.939757056842    -0.035269575230    -0.002567847222    14.003074004430
         H            3.830567056842     0.443990424770    -0.032277847222     1.007825032230
         H            2.961607056842    -0.601399575230     0.836022152778     1.007825032230
         H            2.947537056842    -0.685559575230    -0.778037847222     1.007825032230

  Charge       = 0
  Multiplicity = 1
  Basis Set: AUG-CC-PVTZ
    Blend: AUG-CC-PVTZ
  Basis Set: (AUG-CC-PVTZ AUX)
    Blend: AUG-CC-PVTZ-JKFIT

    Orbital Energies [Eh]
    ---------------------

    Doubly Occupied:

       1A    -15.542316     2A     -1.144084     3A     -0.627953
       4A     -0.627110     5A     -0.432019

  @DF-RHF Final Energy:   -56.22021354655413

   => Energetics <=

    Nuclear Repulsion Energy =             11.9635149614247869
    One-Electron Energy =                 -99.6204897774022129
    Two-Electron Energy =                  31.4367612694232896
    Total Energy =                        -56.2202135465541346

  Dipole Moment: [D]
     X:     1.2928      Y:    -1.0369      Z:     0.0451     Total:     1.6578

    SAPT Results
  --------------------------------------------------------------------------------------------------------
    Electrostatics                 -0.67989087 [mEh]      -0.42663796 [kcal/mol]      -1.78505323 [kJ/mol]
      Elst10,r                     -0.72747774 [mEh]      -0.45649917 [kcal/mol]      -1.90999253 [kJ/mol]
      Elst12,r                      0.04758687 [mEh]       0.02986121 [kcal/mol]       0.12493930 [kJ/mol]

    Exchange                        0.20239995 [mEh]       0.12700789 [kcal/mol]       0.53140100 [kJ/mol]
      Exch10                        0.17132498 [mEh]       0.10750805 [kcal/mol]       0.44981368 [kJ/mol]
      Exch10(S^2)                   0.17129155 [mEh]       0.10748707 [kcal/mol]       0.44972589 [kJ/mol]
      Exch11(S^2)                  -0.00117741 [mEh]      -0.00073883 [kcal/mol]      -0.00309128 [kJ/mol]
      Exch12(S^2)                   0.03225238 [mEh]       0.02023867 [kcal/mol]       0.08467860 [kJ/mol]

    Induction                      -0.13163185 [mEh]      -0.08260024 [kcal/mol]      -0.34559939 [kJ/mol]
      Ind20,r                      -0.13374642 [mEh]      -0.08392714 [kcal/mol]      -0.35115117 [kJ/mol]
      Ind22                        -0.00225546 [mEh]      -0.00141532 [kcal/mol]      -0.00592172 [kJ/mol]
      Exch-Ind20,r                  0.01860836 [mEh]       0.01167692 [kcal/mol]       0.04885623 [kJ/mol]
      Exch-Ind22                    0.00031381 [mEh]       0.00019692 [kcal/mol]       0.00082390 [kJ/mol]
      delta HF,r (2)               -0.01455214 [mEh]      -0.00913160 [kcal/mol]      -0.03820663 [kJ/mol]

    Dispersion                     -0.52347912 [mEh]      -0.32848810 [kcal/mol]      -1.37439423 [kJ/mol]
      Disp20                       -0.49096798 [mEh]      -0.30808706 [kcal/mol]      -1.28903624 [kJ/mol]
      Disp21                        0.00278800 [mEh]       0.00174950 [kcal/mol]       0.00731989 [kJ/mol]
      Disp22 (SDQ)                  0.02505299 [mEh]       0.01572099 [kcal/mol]       0.06577662 [kJ/mol]
      Disp22 (T)                   -0.07284378 [mEh]      -0.04571016 [kcal/mol]      -0.19125131 [kJ/mol]
      Est. Disp22 (T)              -0.08171081 [mEh]      -0.05127431 [kcal/mol]      -0.21453171 [kJ/mol]
      Exch-Disp20                   0.02135868 [mEh]       0.01340277 [kcal/mol]       0.05607721 [kJ/mol]

  Total HF                         -0.68584295 [mEh]      -0.43037295 [kcal/mol]      -1.80068042 [kJ/mol]
  Total SAPT0                      -1.15545225 [mEh]      -0.72505723 [kcal/mol]      -3.03363946 [kJ/mol]
  Total SAPT2                      -1.07873207 [mEh]      -0.67691459 [kcal/mol]      -2.83221066 [kJ/mol]
  Total SAPT2+                     -1.13260189 [mEh]      -0.71071842 [kcal/mol]      -2.97364585 [kJ/mol]

  Special recipe for scaled SAPT0 (see Manual):
    Electrostatics sSAPT0          -0.72747774 [mEh]      -0.45649917 [kcal/mol]      -1.90999253 [kJ/mol]
    Exchange sSAPT0                 0.17132498 [mEh]       0.10750805 [kcal/mol]       0.44981368 [kJ/mol]
    Induction sSAPT0               -0.12967930 [mEh]      -0.08137499 [kcal/mol]      -0.34047295 [kJ/mol]
    Dispersion sSAPT0              -0.46959679 [mEh]      -0.29467643 [kcal/mol]      -1.23292619 [kJ/mol]
  Total sSAPT0                     -1.15542884 [mEh]      -0.72504254 [kcal/mol]      -3.03357800 [kJ/mol]
  --------------------------------------------------------------------------------------------------------

*** Psi4 exiting successfully. Buy a developer a beer!
