                               Psi4 1.4a2.dev224

  ==> Input File <==

--------------------------------------------------------------------------
#Generated by lconvert.py for sapt job

memory 50 GB

molecule  {
0 1
  C      -1.259210    0.661370   -0.001290
  C      -1.813830   -0.550850    0.000430
  H      -1.873310    1.551250   -0.002520
  H      -0.184860    0.787060   -0.002030
  H      -1.204800   -1.444290    0.003160
  H      -2.886280   -0.685600    0.000960
--
0 1
  N       2.086640   -0.008540   -0.002610
  H       2.977450    0.470720   -0.032320
  H       2.108490   -0.574670    0.835980
  H       2.094410   -0.658830   -0.778090
units angstrom
no_reorient
symmetry c1
}

set {
scf_type DF
basis aug-cc-pvtz
freeze_core True
guess SAD
}
energy('sapt2+')
--------------------------------------------------------------------------

  //              Dimer HF             //
    Molecular point group: c1
  Charge       = 0
  Multiplicity = 1
  Basis Set: AUG-CC-PVTZ
    Blend: AUG-CC-PVTZ
  Basis Set: (AUG-CC-PVTZ AUX)
    Blend: AUG-CC-PVTZ-JKFIT
  @DF-RHF Final Energy:  -134.28433171740673
    Total Energy =                       -134.2843317174067295
  //            Monomer A HF           //
    Molecular point group: c1
  Multiplicity = 1
  Basis Set: AUG-CC-PVTZ
    Blend: AUG-CC-PVTZ
  Basis Set: (AUG-CC-PVTZ AUX)
    Blend: AUG-CC-PVTZ-JKFIT
  @DF-RHF Final Energy:   -78.06466428584078
    Total Energy =                        -78.0646642858407915
  //            Monomer B HF           //
    Molecular point group: c1

    Geometry (in Angstrom), charge = 0, multiplicity = 1:

       Center              X                  Y                   Z               Mass
    ------------   -----------------  -----------------  -----------------  -----------------
      Gh(C)          -1.112333542696     0.646989467547    -0.000812140932    12.000000000000
      Gh(C)          -1.666953542696    -0.565230532453     0.000907859068    12.000000000000
      Gh(H)          -1.726433542696     1.536869467547    -0.002042140932     1.007825032230
      Gh(H)          -0.037983542696     0.772679467547    -0.001552140932     1.007825032230
      Gh(H)          -1.057923542696    -1.458670532453     0.003637859068     1.007825032230
      Gh(H)          -2.739403542696    -0.699980532453     0.001437859068     1.007825032230
         N            2.233516457304    -0.022920532453    -0.002132140932    14.003074004430
         H            3.124326457304     0.456339467547    -0.031842140932     1.007825032230
         H            2.255366457304    -0.589050532453     0.836457859068     1.007825032230
         H            2.241286457304    -0.673210532453    -0.777612140932     1.007825032230

  Charge       = 0
  Multiplicity = 1
  Basis Set: AUG-CC-PVTZ
    Blend: AUG-CC-PVTZ
  Basis Set: (AUG-CC-PVTZ AUX)
    Blend: AUG-CC-PVTZ-JKFIT

    Orbital Energies [Eh]
    ---------------------

    Doubly Occupied:

       1A    -15.542297     2A     -1.144073     3A     -0.627940
       4A     -0.627099     5A     -0.432014

  @DF-RHF Final Energy:   -56.22023121063268

   => Energetics <=

    Nuclear Repulsion Energy =             11.9634834474607405
    One-Electron Energy =                 -99.6205806993171450
    Two-Electron Energy =                  31.4368660412237162
    Total Energy =                        -56.2202312106326829

  Dipole Moment: [D]
     X:     1.2928      Y:    -1.0370      Z:     0.0451     Total:     1.6579

    SAPT Results
  --------------------------------------------------------------------------------------------------------
    Electrostatics                 -4.68451854 [mEh]      -2.93957976 [kcal/mol]     -12.29920173 [kJ/mol]
      Elst10,r                     -4.56121865 [mEh]      -2.86220792 [kcal/mol]     -11.97547792 [kJ/mol]
      Elst12,r                     -0.12329989 [mEh]      -0.07737185 [kcal/mol]      -0.32372381 [kJ/mol]

    Exchange                        7.28614521 [mEh]       4.57212515 [kcal/mol]      19.12977162 [kJ/mol]
      Exch10                        6.70245972 [mEh]       4.20585697 [kcal/mol]      17.59730556 [kJ/mol]
      Exch10(S^2)                   6.66450280 [mEh]       4.18203865 [kcal/mol]      17.49764969 [kJ/mol]
      Exch11(S^2)                   0.09724449 [mEh]       0.06102184 [kcal/mol]       0.25531538 [kJ/mol]
      Exch12(S^2)                   0.48644101 [mEh]       0.30524634 [kcal/mol]       1.27715069 [kJ/mol]

    Induction                      -1.64390547 [mEh]      -1.03156626 [kcal/mol]      -4.31607321 [kJ/mol]
      Ind20,r                      -2.03331673 [mEh]      -1.27592551 [kcal/mol]      -5.33847234 [kJ/mol]
      Ind22                        -0.15591545 [mEh]      -0.09783842 [kcal/mol]      -0.40935596 [kJ/mol]
      Exch-Ind20,r                  1.16681747 [mEh]       0.73218902 [kcal/mol]       3.06347884 [kJ/mol]
      Exch-Ind22                    0.08947198 [mEh]       0.05614451 [kcal/mol]       0.23490865 [kJ/mol]
      delta HF,r (2)               -0.71096274 [mEh]      -0.44613585 [kcal/mol]      -1.86663241 [kJ/mol]

    Dispersion                     -3.37051709 [mEh]      -2.11503140 [kcal/mol]      -8.84929140 [kJ/mol]
      Disp20                       -3.60420151 [mEh]      -2.26167059 [kcal/mol]      -9.46282976 [kJ/mol]
      Disp21                        0.01126092 [mEh]       0.00706633 [kcal/mol]       0.02956554 [kJ/mol]
      Disp22 (SDQ)                  0.17762134 [mEh]       0.11145907 [kcal/mol]       0.46634476 [kJ/mol]
      Disp22 (T)                   -0.46807219 [mEh]      -0.29371973 [kcal/mol]      -1.22892336 [kJ/mol]
      Est. Disp22 (T)              -0.54330425 [mEh]      -0.34092856 [kcal/mol]      -1.42644511 [kJ/mol]
      Exch-Disp20                   0.58810642 [mEh]       0.36904235 [kcal/mol]       1.54407319 [kJ/mol]

  Total HF                          0.56377907 [mEh]       0.35377671 [kcal/mol]       1.48020174 [kJ/mol]
  Total SAPT0                      -2.45231603 [mEh]      -1.53885154 [kcal/mol]      -6.43855484 [kJ/mol]
  Total SAPT2                      -2.05837389 [mEh]      -1.29164912 [kcal/mol]      -5.40425990 [kJ/mol]
  Total SAPT2+                     -2.41279588 [mEh]      -1.51405227 [kcal/mol]      -6.33479472 [kJ/mol]

  Special recipe for scaled SAPT0 (see Manual):
    Electrostatics sSAPT0          -4.56121865 [mEh]      -2.86220792 [kcal/mol]     -11.97547792 [kJ/mol]
    Exchange sSAPT0                 6.70245972 [mEh]       4.20585697 [kcal/mol]      17.59730556 [kJ/mol]
    Induction sSAPT0               -1.55741181 [mEh]      -0.97729066 [kcal/mol]      -4.08898414 [kJ/mol]
    Dispersion sSAPT0              -3.00598928 [mEh]      -1.88628675 [kcal/mol]      -7.89222376 [kJ/mol]
  Total sSAPT0                     -2.42216002 [mEh]      -1.51992836 [kcal/mol]      -6.35938026 [kJ/mol]
  --------------------------------------------------------------------------------------------------------

*** Psi4 exiting successfully. Buy a developer a beer!
