                               Psi4 1.4a2.dev224

  ==> Input File <==

--------------------------------------------------------------------------
#Generated by lconvert.py for sapt job

memory 50 GB

molecule  {
0 1
  C      -1.259210    0.661370   -0.001290
  C      -1.813830   -0.550850    0.000430
  H      -1.873310    1.551250   -0.002520
  H      -0.184860    0.787060   -0.002030
  H      -1.204800   -1.444290    0.003160
  H      -2.886280   -0.685600    0.000960
--
0 1
  N       4.088140   -0.043530   -0.003840
  H       4.978950    0.435720   -0.033550
  H       4.109990   -0.609660    0.834740
  H       4.095910   -0.693830   -0.779320
units angstrom
no_reorient
symmetry c1
}

set {
scf_type DF
basis aug-cc-pvtz
freeze_core True
guess SAD
}
energy('sapt2+')
--------------------------------------------------------------------------

  //              Dimer HF             //
    Molecular point group: c1
  Charge       = 0
  Multiplicity = 1
  Basis Set: AUG-CC-PVTZ
    Blend: AUG-CC-PVTZ
  Basis Set: (AUG-CC-PVTZ AUX)
    Blend: AUG-CC-PVTZ-JKFIT
  @DF-RHF Final Energy:  -134.28518943562432
    Total Energy =                       -134.2851894356243179
  //            Monomer A HF           //
    Molecular point group: c1
  Multiplicity = 1
  Basis Set: AUG-CC-PVTZ
    Blend: AUG-CC-PVTZ
  Basis Set: (AUG-CC-PVTZ AUX)
    Blend: AUG-CC-PVTZ-JKFIT
  @DF-RHF Final Energy:   -78.06464886109167
    Total Energy =                        -78.0646488610916549
  //            Monomer B HF           //
    Molecular point group: c1

    Geometry (in Angstrom), charge = 0, multiplicity = 1:

       Center              X                  Y                   Z               Mass
    ------------   -----------------  -----------------  -----------------  -----------------
      Gh(C)          -1.868664317649     0.660212005234    -0.000347122428    12.000000000000
      Gh(C)          -2.423284317649    -0.552007994766     0.001372877572    12.000000000000
      Gh(H)          -2.482764317649     1.550092005234    -0.001577122428     1.007825032230
      Gh(H)          -0.794314317649     0.785902005234    -0.001087122428     1.007825032230
      Gh(H)          -1.814254317649    -1.445447994766     0.004102877572     1.007825032230
      Gh(H)          -3.495734317649    -0.686757994766     0.001902877572     1.007825032230
         N            3.478685682351    -0.044687994766    -0.002897122428    14.003074004430
         H            4.369495682351     0.434562005234    -0.032607122428     1.007825032230
         H            3.500535682351    -0.610817994766     0.835682877572     1.007825032230
         H            3.486455682351    -0.694987994766    -0.778377122428     1.007825032230

  Charge       = 0
  Multiplicity = 1
  Basis Set: AUG-CC-PVTZ
    Blend: AUG-CC-PVTZ
  Basis Set: (AUG-CC-PVTZ AUX)
    Blend: AUG-CC-PVTZ-JKFIT

    Orbital Energies [Eh]
    ---------------------

    Doubly Occupied:

       1A    -15.542316     2A     -1.144082     3A     -0.627947
       4A     -0.627109     5A     -0.432019

  @DF-RHF Final Energy:   -56.22020718374915

   => Energetics <=

    Nuclear Repulsion Energy =             11.9635116397925874
    One-Electron Energy =                 -99.6204911727467390
    Two-Electron Energy =                  31.4367723492050004
    Total Energy =                        -56.2202071837491530

  Dipole Moment: [D]
     X:     1.2921      Y:    -1.0363      Z:     0.0451     Total:     1.6570

    SAPT Results
  --------------------------------------------------------------------------------------------------------
    Electrostatics                 -0.27928329 [mEh]      -0.17525291 [kcal/mol]      -0.73325818 [kJ/mol]
      Elst10,r                     -0.30949737 [mEh]      -0.19421253 [kcal/mol]      -0.81258523 [kJ/mol]
      Elst12,r                      0.03021408 [mEh]       0.01895962 [kcal/mol]       0.07932705 [kJ/mol]

    Exchange                        0.01208146 [mEh]       0.00758123 [kcal/mol]       0.03171988 [kJ/mol]
      Exch10                        0.00957603 [mEh]       0.00600905 [kcal/mol]       0.02514187 [kJ/mol]
      Exch10(S^2)                   0.00957590 [mEh]       0.00600897 [kcal/mol]       0.02514153 [kJ/mol]
      Exch11(S^2)                  -0.00022991 [mEh]      -0.00014427 [kcal/mol]      -0.00060363 [kJ/mol]
      Exch12(S^2)                   0.00273534 [mEh]       0.00171645 [kcal/mol]       0.00718163 [kJ/mol]

    Induction                      -0.03270978 [mEh]      -0.02052570 [kcal/mol]      -0.08587951 [kJ/mol]
      Ind20,r                      -0.03400817 [mEh]      -0.02134045 [kcal/mol]      -0.08928844 [kJ/mol]
      Ind22                         0.00077940 [mEh]       0.00048908 [kcal/mol]       0.00204631 [kJ/mol]
      Exch-Ind20,r                  0.00086087 [mEh]       0.00054020 [kcal/mol]       0.00226020 [kJ/mol]
      Exch-Ind22                   -0.00001973 [mEh]      -0.00001238 [kcal/mol]      -0.00005180 [kJ/mol]
      delta HF,r (2)               -0.00032214 [mEh]      -0.00020215 [kcal/mol]      -0.00084578 [kJ/mol]

    Dispersion                     -0.15835938 [mEh]      -0.09937201 [kcal/mol]      -0.41577251 [kJ/mol]
      Disp20                       -0.14783679 [mEh]      -0.09276898 [kcal/mol]      -0.38814543 [kJ/mol]
      Disp21                        0.00462976 [mEh]       0.00290522 [kcal/mol]       0.01215542 [kJ/mol]
      Disp22 (SDQ)                  0.00849641 [mEh]       0.00533158 [kcal/mol]       0.02230733 [kJ/mol]
      Disp22 (T)                   -0.02345109 [mEh]      -0.01471578 [kcal/mol]      -0.06157082 [kJ/mol]
      Est. Disp22 (T)              -0.02510629 [mEh]      -0.01575443 [kcal/mol]      -0.06591655 [kJ/mol]
      Exch-Disp20                   0.00145752 [mEh]       0.00091461 [kcal/mol]       0.00382672 [kJ/mol]

  Total HF                         -0.33339078 [mEh]      -0.20920588 [kcal/mol]      -0.87531738 [kJ/mol]
  Total SAPT0                      -0.47977005 [mEh]      -0.30106025 [kcal/mol]      -1.25963609 [kJ/mol]
  Total SAPT2                      -0.44629087 [mEh]      -0.28005175 [kcal/mol]      -1.17173652 [kJ/mol]
  Total SAPT2+                     -0.45827099 [mEh]      -0.28756939 [kcal/mol]      -1.20319032 [kJ/mol]

  Special recipe for scaled SAPT0 (see Manual):
    Electrostatics sSAPT0          -0.30949737 [mEh]      -0.19421253 [kcal/mol]      -0.81258523 [kJ/mol]
    Exchange sSAPT0                 0.00957603 [mEh]       0.00600905 [kcal/mol]       0.02514187 [kJ/mol]
    Induction sSAPT0               -0.03346945 [mEh]      -0.02100240 [kcal/mol]      -0.08787402 [kJ/mol]
    Dispersion sSAPT0              -0.14637926 [mEh]      -0.09185438 [kcal/mol]      -0.38431871 [kJ/mol]
  Total sSAPT0                     -0.47977005 [mEh]      -0.30106025 [kcal/mol]      -1.25963609 [kJ/mol]
  --------------------------------------------------------------------------------------------------------

*** Psi4 exiting successfully. Buy a developer a beer!
