                               Psi4 1.4a2.dev224

  ==> Input File <==

--------------------------------------------------------------------------
#Generated by lconvert.py for sapt job

memory 50 GB

molecule  {
0 1
  C      -1.259210    0.661370   -0.001290
  C      -1.813830   -0.550850    0.000430
  H      -1.873310    1.551250   -0.002520
  H      -0.184860    0.787060   -0.002030
  H      -1.204800   -1.444290    0.003160
  H      -2.886280   -0.685600    0.000960
--
0 1
  N       2.227030   -0.010990   -0.002700
  H       3.117840    0.468260   -0.032410
  H       2.248880   -0.577130    0.835890
  H       2.234800   -0.661290   -0.778170
units angstrom
no_reorient
symmetry c1
}

set {
scf_type DF
basis aug-cc-pvtz
freeze_core True
guess SAD
}
energy('sapt2+')
--------------------------------------------------------------------------

  //              Dimer HF             //
    Molecular point group: c1
  Charge       = 0
  Multiplicity = 1
  Basis Set: AUG-CC-PVTZ
    Blend: AUG-CC-PVTZ
  Basis Set: (AUG-CC-PVTZ AUX)
    Blend: AUG-CC-PVTZ-JKFIT
  @DF-RHF Final Energy:  -134.28508484120846
    Total Energy =                       -134.2850848412084588
  //            Monomer A HF           //
    Molecular point group: c1
  Multiplicity = 1
  Basis Set: AUG-CC-PVTZ
    Blend: AUG-CC-PVTZ
  Basis Set: (AUG-CC-PVTZ AUX)
    Blend: AUG-CC-PVTZ-JKFIT
  @DF-RHF Final Energy:   -78.06466181995627
    Total Energy =                        -78.0646618199562710
  //            Monomer B HF           //
    Molecular point group: c1

    Geometry (in Angstrom), charge = 0, multiplicity = 1:

       Center              X                  Y                   Z               Mass
    ------------   -----------------  -----------------  -----------------  -----------------
      Gh(C)          -1.165384393306     0.647915949408    -0.000778355228    12.000000000000
      Gh(C)          -1.720004393306    -0.564304050592     0.000941644772    12.000000000000
      Gh(H)          -1.779484393306     1.537795949408    -0.002008355228     1.007825032230
      Gh(H)          -0.091034393306     0.773605949408    -0.001518355228     1.007825032230
      Gh(H)          -1.110974393306    -1.457744050592     0.003671644772     1.007825032230
      Gh(H)          -2.792454393306    -0.699054050592     0.001471644772     1.007825032230
         N            2.320855606694    -0.024444050592    -0.002188355228    14.003074004430
         H            3.211665606694     0.454805949408    -0.031898355228     1.007825032230
         H            2.342705606694    -0.590584050592     0.836401644772     1.007825032230
         H            2.328625606694    -0.674744050592    -0.777658355228     1.007825032230

  Charge       = 0
  Multiplicity = 1
  Basis Set: AUG-CC-PVTZ
    Blend: AUG-CC-PVTZ
  Basis Set: (AUG-CC-PVTZ AUX)
    Blend: AUG-CC-PVTZ-JKFIT

    Orbital Energies [Eh]
    ---------------------

    Doubly Occupied:

       1A    -15.542301     2A     -1.144075     3A     -0.627941
       4A     -0.627101     5A     -0.432016

  @DF-RHF Final Energy:   -56.22022804725560

   => Energetics <=

    Nuclear Repulsion Energy =             11.9634877760313216
    One-Electron Energy =                 -99.6205601332000583
    Two-Electron Energy =                  31.4368443099131376
    Total Energy =                        -56.2202280472556026

  Dipole Moment: [D]
     X:     1.2928      Y:    -1.0370      Z:     0.0451     Total:     1.6579

    SAPT Results
  --------------------------------------------------------------------------------------------------------
    Electrostatics                 -3.45438658 [mEh]      -2.16766031 [kcal/mol]      -9.06949072 [kJ/mol]
      Elst10,r                     -3.39348171 [mEh]      -2.12944192 [kcal/mol]      -8.90958500 [kJ/mol]
      Elst12,r                     -0.06090487 [mEh]      -0.03821838 [kcal/mol]      -0.15990572 [kJ/mol]

    Exchange                        4.72612310 [mEh]       2.96568702 [kcal/mol]      12.40843448 [kJ/mol]
      Exch10                        4.30378565 [mEh]       2.70066627 [kcal/mol]      11.29958768 [kJ/mol]
      Exch10(S^2)                   4.28750191 [mEh]       2.69044807 [kcal/mol]      11.25683471 [kJ/mol]
      Exch11(S^2)                   0.05300234 [mEh]       0.03325947 [kcal/mol]       0.13915763 [kJ/mol]
      Exch12(S^2)                   0.36933510 [mEh]       0.23176128 [kcal/mol]       0.96968918 [kJ/mol]

    Induction                      -1.15380707 [mEh]      -0.72402487 [kcal/mol]      -3.02932005 [kJ/mol]
      Ind20,r                      -1.35407747 [mEh]      -0.84969644 [kcal/mol]      -3.55512991 [kJ/mol]
      Ind22                        -0.10007978 [mEh]      -0.06280101 [kcal/mol]      -0.26275943 [kJ/mol]
      Exch-Ind20,r                  0.69747927 [mEh]       0.43767485 [kcal/mol]       1.83123157 [kJ/mol]
      Exch-Ind22                    0.05155065 [mEh]       0.03234852 [kcal/mol]       0.13534621 [kJ/mol]
      delta HF,r (2)               -0.44867974 [mEh]      -0.28155079 [kcal/mol]      -1.17800849 [kJ/mol]

    Dispersion                     -2.64294949 [mEh]      -1.65847584 [kcal/mol]      -6.93906292 [kJ/mol]
      Disp20                       -2.75215890 [mEh]      -1.72700578 [kcal/mol]      -7.22579220 [kJ/mol]
      Disp21                       -0.00215019 [mEh]      -0.00134927 [kcal/mol]      -0.00564533 [kJ/mol]
      Disp22 (SDQ)                  0.13507546 [mEh]       0.08476113 [kcal/mol]       0.35464057 [kJ/mol]
      Disp22 (T)                   -0.36242523 [mEh]      -0.22742526 [kcal/mol]      -0.95154731 [kJ/mol]
      Est. Disp22 (T)              -0.42212465 [mEh]      -0.26488721 [kcal/mol]      -1.10828810 [kJ/mol]
      Exch-Disp20                   0.39840879 [mEh]       0.25000529 [kcal/mol]       1.04602215 [kJ/mol]

  Total HF                         -0.19497400 [mEh]      -0.12234803 [kcal/mol]      -0.51190416 [kJ/mol]
  Total SAPT0                      -2.54872410 [mEh]      -1.59934852 [kcal/mol]      -6.69167421 [kJ/mol]
  Total SAPT2                      -2.23582066 [mEh]      -1.40299865 [kcal/mol]      -5.87014634 [kJ/mol]
  Total SAPT2+                     -2.52502004 [mEh]      -1.58447400 [kcal/mol]      -6.62943921 [kJ/mol]

  Special recipe for scaled SAPT0 (see Manual):
    Electrostatics sSAPT0          -3.39348171 [mEh]      -2.12944192 [kcal/mol]      -8.90958500 [kJ/mol]
    Exchange sSAPT0                 4.30378565 [mEh]       2.70066627 [kcal/mol]      11.29958768 [kJ/mol]
    Induction sSAPT0               -1.09730073 [mEh]      -0.68856660 [kcal/mol]      -2.88096267 [kJ/mol]
    Dispersion sSAPT0              -2.34919343 [mEh]      -1.47414113 [kcal/mol]      -6.16780649 [kJ/mol]
  Total sSAPT0                     -2.53619021 [mEh]      -1.59148339 [kcal/mol]      -6.65876649 [kJ/mol]
  --------------------------------------------------------------------------------------------------------

*** Psi4 exiting successfully. Buy a developer a beer!
