                               Psi4 1.4a2.dev224

  ==> Input File <==

--------------------------------------------------------------------------
#Generated by lconvert.py for sapt job

memory 50 GB

molecule  {
0 1
  C      -1.259210    0.661370   -0.001290
  C      -1.813830   -0.550850    0.000430
  H      -1.873310    1.551250   -0.002520
  H      -0.184860    0.787060   -0.002030
  H      -1.204800   -1.444290    0.003160
  H      -2.886280   -0.685600    0.000960
--
0 1
  N       1.514280    0.001470   -0.002260
  H       2.405090    0.480720   -0.031970
  H       1.536130   -0.564660    0.836330
  H       1.522050   -0.648830   -0.777730
units angstrom
no_reorient
symmetry c1
}

set {
scf_type DF
basis aug-cc-pvtz
freeze_core True
guess SAD
}
energy('sapt2+')
--------------------------------------------------------------------------

  //              Dimer HF             //
    Molecular point group: c1
  Charge       = 0
  Multiplicity = 1
  Basis Set: AUG-CC-PVTZ
    Blend: AUG-CC-PVTZ
  Basis Set: (AUG-CC-PVTZ AUX)
    Blend: AUG-CC-PVTZ-JKFIT
  @DF-RHF Final Energy:  -134.27153877073263
    Total Energy =                       -134.2715387707326329
  //            Monomer A HF           //
    Molecular point group: c1
  Basis Set: AUG-CC-PVTZ
    Blend: AUG-CC-PVTZ
  Basis Set: (AUG-CC-PVTZ AUX)
    Blend: AUG-CC-PVTZ-JKFIT
  @DF-RHF Final Energy:   -78.06467907953837
    Total Energy =                        -78.0646790795383652
  //            Monomer B HF           //
  Basis Set: AUG-CC-PVTZ
    Blend: AUG-CC-PVTZ
  Basis Set: (AUG-CC-PVTZ AUX)
    Blend: AUG-CC-PVTZ-JKFIT
  @DF-RHF Final Energy:   -56.22026276867354
    Total Energy =                        -56.2202627686735426
*** Psi4 exiting successfully. Buy a developer a beer!
                               Psi4 1.4a2.dev224
  //              Dimer HF             //
  Basis Set: AUG-CC-PVTZ
    Blend: AUG-CC-PVTZ
  Basis Set: (AUG-CC-PVTZ AUX)
    Blend: AUG-CC-PVTZ-JKFIT
  @DF-RHF Final Energy:  -134.28083611093817
    Total Energy =                       -134.2808361109381394
  @DF-RHF Final Energy:   -78.06467067622923
    Total Energy =                        -78.0646706762292268
  @DF-RHF Final Energy:   -56.22024355889690
    Total Energy =                        -56.2202435588968967
*** Psi4 exiting successfully. Buy a developer a beer!
                               Psi4 1.4a2.dev224
  @DF-RHF Final Energy:  -134.28433171740673
    Total Energy =                       -134.2843317174067295
  @DF-RHF Final Energy:   -78.06466428584078
    Total Energy =                        -78.0646642858407915
  @DF-RHF Final Energy:   -56.22023121063268
    Total Energy =                        -56.2202312106326829
                               Psi4 1.4a2.dev224
  @DF-RHF Final Energy:  -134.28508484120846
    Total Energy =                       -134.2850848412084588
  @DF-RHF Final Energy:   -78.06466181995627
    Total Energy =                        -78.0646618199562710
  @DF-RHF Final Energy:   -56.22022804725560
    Total Energy =                        -56.2202280472556026
                               Psi4 1.4a2.dev224
  @DF-RHF Final Energy:  -134.28549196797863
    Total Energy =                       -134.2854919679786008
  @DF-RHF Final Energy:   -78.06465983641409
    Total Energy =                        -78.0646598364140942
  @DF-RHF Final Energy:   -56.22022599788377
    Total Energy =                        -56.2202259978837731
                               Psi4 1.4a2.dev224
  @DF-RHF Final Energy:  -134.28568651066468
    Total Energy =                       -134.2856865106646751
  @DF-RHF Final Energy:   -78.06465818048905
    Total Energy =                        -78.0646581804890474
  @DF-RHF Final Energy:   -56.22022405433675
    Total Energy =                        -56.2202240543367466
                               Psi4 1.4a2.dev224
  @DF-RHF Final Energy:  -134.28575420787462
    Total Energy =                       -134.2857542078746178
  @DF-RHF Final Energy:   -78.06465668855795
    Total Energy =                        -78.0646566885579460
  @DF-RHF Final Energy:   -56.22022235862947
    Total Energy =                        -56.2202223586294707
                               Psi4 1.4a2.dev224
  @DF-RHF Final Energy:  -134.28555164784666
    Total Energy =                       -134.2855516478466598
  @DF-RHF Final Energy:   -78.06465225834174
    Total Energy =                        -78.0646522583417379
  @DF-RHF Final Energy:   -56.22021354655413
    Total Energy =                        -56.2202135465541346
                               Psi4 1.4a2.dev224
  @DF-RHF Final Energy:  -134.28518943562432
    Total Energy =                       -134.2851894356243179
  @DF-RHF Final Energy:   -78.06464886109167
    Total Energy =                        -78.0646488610916549
  //            Monomer B HF           //
  Basis Set: AUG-CC-PVTZ
    Blend: AUG-CC-PVTZ
  Basis Set: (AUG-CC-PVTZ AUX)
    Blend: AUG-CC-PVTZ-JKFIT
  @DF-RHF Final Energy:   -56.22020718374915
    Total Energy =                        -56.2202071837491530
*** Psi4 exiting successfully. Buy a developer a beer!
                               Psi4 1.4a2.dev224
  //              Dimer HF             //
  Basis Set: AUG-CC-PVTZ
    Blend: AUG-CC-PVTZ
  Basis Set: (AUG-CC-PVTZ AUX)
    Blend: AUG-CC-PVTZ-JKFIT
  @DF-RHF Final Energy:  -134.28501679636796
    Total Energy =                       -134.2850167963679553
  //            Monomer A HF           //
  Multiplicity = 1
  Basis Set: AUG-CC-PVTZ
    Blend: AUG-CC-PVTZ
  Basis Set: (AUG-CC-PVTZ AUX)
    Blend: AUG-CC-PVTZ-JKFIT
  @DF-RHF Final Energy:   -78.06464598292557
    Total Energy =                        -78.0646459829255832
  //            Monomer B HF           //
    Molecular point group: c1

    Geometry (in Angstrom), charge = 0, multiplicity = 1:

       Center              X                  Y                   Z               Mass
    ------------   -----------------  -----------------  -----------------  -----------------
      Gh(C)          -2.196015915814     0.665936469823    -0.000143513508    12.000000000000
      Gh(C)          -2.750635915814    -0.546283530177     0.001576486492    12.000000000000
      Gh(H)          -2.810115915814     1.555816469823    -0.001373513508     1.007825032230
      Gh(H)          -1.121665915814     0.791626469823    -0.000883513508     1.007825032230
      Gh(H)          -2.141605915814    -1.439723530177     0.004306486492     1.007825032230
      Gh(H)          -3.823085915814    -0.681033530177     0.002106486492     1.007825032230
         N            4.017614084186    -0.054113530177    -0.003233513508    14.003074004430
         H            4.908424084186     0.425146469823    -0.032943513508     1.007825032230
         H            4.039464084186    -0.620243530177     0.835356486492     1.007825032230
         H            4.025384084186    -0.704403530177    -0.778703513508     1.007825032230

  Charge       = 0
  Multiplicity = 1
  Basis Set: AUG-CC-PVTZ
    Blend: AUG-CC-PVTZ
  Basis Set: (AUG-CC-PVTZ AUX)
    Blend: AUG-CC-PVTZ-JKFIT

    Orbital Energies [Eh]
    ---------------------

    Doubly Occupied:

       1A    -15.542313     2A     -1.144079     3A     -0.627949
       4A     -0.627104     5A     -0.432016

  @DF-RHF Final Energy:   -56.22020239050031

   => Energetics <=

    Nuclear Repulsion Energy =             11.9635141145463670
    One-Electron Energy =                 -99.6205067638803996
    Two-Electron Energy =                  31.4367902588337174
    Total Energy =                        -56.2202023905003117

  Dipole Moment: [D]
     X:     1.2913      Y:    -1.0361      Z:     0.0451     Total:     1.6562

    SAPT Results
  --------------------------------------------------------------------------------------------------------
    Electrostatics                 -0.14003990 [mEh]      -0.08787636 [kcal/mol]      -0.36767469 [kJ/mol]
      Elst10,r                     -0.15714125 [mEh]      -0.09860762 [kcal/mol]      -0.41257428 [kJ/mol]
      Elst12,r                      0.01710135 [mEh]       0.01073126 [kcal/mol]       0.04489959 [kJ/mol]

    Exchange                        0.00069542 [mEh]       0.00043639 [kcal/mol]       0.00182584 [kJ/mol]
      Exch10                        0.00051759 [mEh]       0.00032479 [kcal/mol]       0.00135894 [kJ/mol]
      Exch10(S^2)                   0.00051759 [mEh]       0.00032479 [kcal/mol]       0.00135894 [kJ/mol]
      Exch11(S^2)                  -0.00002027 [mEh]      -0.00001272 [kcal/mol]      -0.00005323 [kJ/mol]
      Exch12(S^2)                   0.00019811 [mEh]       0.00012431 [kcal/mol]       0.00052013 [kJ/mol]

    Induction                      -0.01133560 [mEh]      -0.00711320 [kcal/mol]      -0.02976162 [kJ/mol]
      Ind20,r                      -0.01184516 [mEh]      -0.00743295 [kcal/mol]      -0.03109945 [kJ/mol]
      Ind22                         0.00046518 [mEh]       0.00029190 [kcal/mol]       0.00122132 [kJ/mol]
      Exch-Ind20,r                  0.00003797 [mEh]       0.00002383 [kcal/mol]       0.00009970 [kJ/mol]
      Exch-Ind22                   -0.00000149 [mEh]      -0.00000094 [kcal/mol]      -0.00000392 [kJ/mol]
      delta HF,r (2)                0.00000789 [mEh]       0.00000495 [kcal/mol]       0.00002073 [kJ/mol]

    Dispersion                     -0.05886674 [mEh]      -0.03693944 [kcal/mol]      -0.15455461 [kJ/mol]
      Disp20                       -0.05586505 [mEh]      -0.03505585 [kcal/mol]      -0.14667367 [kJ/mol]
      Disp21                        0.00294255 [mEh]       0.00184648 [kcal/mol]       0.00772567 [kJ/mol]
      Disp22 (SDQ)                  0.00352945 [mEh]       0.00221476 [kcal/mol]       0.00926657 [kJ/mol]
      Disp22 (T)                   -0.00916396 [mEh]      -0.00575047 [kcal/mol]      -0.02405998 [kJ/mol]
      Est. Disp22 (T)              -0.00956593 [mEh]      -0.00600271 [kcal/mol]      -0.02511534 [kJ/mol]
      Exch-Disp20                   0.00009224 [mEh]       0.00005788 [kcal/mol]       0.00024217 [kJ/mol]

  Total HF                         -0.16842294 [mEh]      -0.10568699 [kcal/mol]      -0.44219437 [kJ/mol]
  Total SAPT0                      -0.22419575 [mEh]      -0.14068496 [kcal/mol]      -0.58862587 [kJ/mol]
  Total SAPT2                      -0.20645289 [mEh]      -0.12955114 [kcal/mol]      -0.54204198 [kJ/mol]
  Total SAPT2+                     -0.20954682 [mEh]      -0.13149261 [kcal/mol]      -0.55016509 [kJ/mol]

  Special recipe for scaled SAPT0 (see Manual):
    Electrostatics sSAPT0          -0.15714125 [mEh]      -0.09860762 [kcal/mol]      -0.41257428 [kJ/mol]
    Exchange sSAPT0                 0.00051759 [mEh]       0.00032479 [kcal/mol]       0.00135894 [kJ/mol]
    Induction sSAPT0               -0.01179929 [mEh]      -0.00740417 [kcal/mol]      -0.03097903 [kJ/mol]
    Dispersion sSAPT0              -0.05577281 [mEh]      -0.03499797 [kcal/mol]      -0.14643150 [kJ/mol]
  Total sSAPT0                     -0.22419575 [mEh]      -0.14068496 [kcal/mol]      -0.58862587 [kJ/mol]
  --------------------------------------------------------------------------------------------------------

*** Psi4 exiting successfully. Buy a developer a beer!
