                               Psi4 1.4a2.dev224

  ==> Input File <==

--------------------------------------------------------------------------
#Generated by lconvert.py for sapt job

memory 50 GB

molecule  {
0 1
  C      -1.259210    0.661370   -0.001290
  C      -1.813830   -0.550850    0.000430
  H      -1.873310    1.551250   -0.002520
  H      -0.184860    0.787060   -0.002030
  H      -1.204800   -1.444290    0.003160
  H      -2.886280   -0.685600    0.000960
--
0 1
  N       2.505780   -0.015870   -0.002870
  H       3.396590    0.463390   -0.032580
  H       2.527640   -0.582000    0.835720
  H       2.513560   -0.666160   -0.778340
units angstrom
no_reorient
symmetry c1
}

set {
scf_type DF
basis aug-cc-pvtz
freeze_core True
guess SAD
}
energy('sapt2+')
--------------------------------------------------------------------------

  //              Dimer HF             //
    Molecular point group: c1
  Charge       = 0
  Multiplicity = 1
  Basis Set: AUG-CC-PVTZ
    Blend: AUG-CC-PVTZ
  Basis Set: (AUG-CC-PVTZ AUX)
    Blend: AUG-CC-PVTZ-JKFIT
  @DF-RHF Final Energy:  -134.28568651066468
    Total Energy =                       -134.2856865106646751
  //            Monomer A HF           //
    Molecular point group: c1
  Multiplicity = 1
  Basis Set: AUG-CC-PVTZ
    Blend: AUG-CC-PVTZ
  Basis Set: (AUG-CC-PVTZ AUX)
    Blend: AUG-CC-PVTZ-JKFIT
  @DF-RHF Final Energy:   -78.06465818048905
    Total Energy =                        -78.0646581804890474
  //            Monomer B HF           //
    Molecular point group: c1

    Geometry (in Angstrom), charge = 0, multiplicity = 1:

       Center              X                  Y                   Z               Mass
    ------------   -----------------  -----------------  -----------------  -----------------
      Gh(C)          -1.270719441461     0.649759342431    -0.000714115292    12.000000000000
      Gh(C)          -1.825339441461    -0.562460657569     0.001005884708    12.000000000000
      Gh(H)          -1.884819441461     1.539639342431    -0.001944115292     1.007825032230
      Gh(H)          -0.196369441461     0.775449342431    -0.001454115292     1.007825032230
      Gh(H)          -1.216309441461    -1.455900657569     0.003735884708     1.007825032230
      Gh(H)          -2.897789441461    -0.697210657569     0.001535884708     1.007825032230
         N            2.494270558539    -0.027480657569    -0.002294115292    14.003074004430
         H            3.385080558539     0.451779342431    -0.032004115292     1.007825032230
         H            2.516130558539    -0.593610657569     0.836295884708     1.007825032230
         H            2.502050558539    -0.677770657569    -0.777764115292     1.007825032230

  Charge       = 0
  Multiplicity = 1
  Basis Set: AUG-CC-PVTZ
    Blend: AUG-CC-PVTZ
  Basis Set: (AUG-CC-PVTZ AUX)
    Blend: AUG-CC-PVTZ-JKFIT

    Orbital Energies [Eh]
    ---------------------

    Doubly Occupied:

       1A    -15.542308     2A     -1.144080     3A     -0.627948
       4A     -0.627104     5A     -0.432018

  @DF-RHF Final Energy:   -56.22022405433675

   => Energetics <=

    Nuclear Repulsion Energy =             11.9635152584094051
    One-Electron Energy =                 -99.6205616585051388
    Two-Electron Energy =                  31.4368223457589906
    Total Energy =                        -56.2202240543367466

  Dipole Moment: [D]
     X:     1.2928      Y:    -1.0370      Z:     0.0451     Total:     1.6580

    SAPT Results
  --------------------------------------------------------------------------------------------------------
    Electrostatics                 -1.99455721 [mEh]      -1.25160354 [kcal/mol]      -5.23670923 [kJ/mol]
      Elst10,r                     -2.00617194 [mEh]      -1.25889190 [kcal/mol]      -5.26720371 [kJ/mol]
      Elst12,r                      0.01161473 [mEh]       0.00728835 [kcal/mol]       0.03049448 [kJ/mol]

    Exchange                        1.97980563 [mEh]       1.24234679 [kcal/mol]       5.19797895 [kJ/mol]
      Exch10                        1.76700929 [mEh]       1.10881507 [kcal/mol]       4.63928226 [kJ/mol]
      Exch10(S^2)                   1.76404816 [mEh]       1.10695693 [kcal/mol]       4.63150780 [kJ/mol]
      Exch11(S^2)                   0.01301247 [mEh]       0.00816545 [kcal/mol]       0.03416424 [kJ/mol]
      Exch12(S^2)                   0.19978386 [mEh]       0.12536626 [kcal/mol]       0.52453245 [kJ/mol]

    Induction                      -0.58954038 [mEh]      -0.36994217 [kcal/mol]      -1.54783805 [kJ/mol]
      Ind20,r                      -0.64014950 [mEh]      -0.40169987 [kcal/mol]      -1.68071227 [kJ/mol]
      Ind22                        -0.04019738 [mEh]      -0.02522423 [kcal/mol]      -0.10553819 [kJ/mol]
      Exch-Ind20,r                  0.25114269 [mEh]       0.15759442 [kcal/mol]       0.65937505 [kJ/mol]
      Exch-Ind22                    0.01577019 [mEh]       0.00989594 [kcal/mol]       0.04140462 [kJ/mol]
      delta HF,r (2)               -0.17610639 [mEh]      -0.11050843 [kcal/mol]      -0.46236725 [kJ/mol]

    Dispersion                     -1.64555613 [mEh]      -1.03260206 [kcal/mol]      -4.32040702 [kJ/mol]
      Disp20                       -1.63913119 [mEh]      -1.02857035 [kcal/mol]      -4.30353834 [kJ/mol]
      Disp21                       -0.00715861 [mEh]      -0.00449209 [kcal/mol]      -0.01879492 [kJ/mol]
      Disp22 (SDQ)                  0.08001051 [mEh]       0.05020735 [kcal/mol]       0.21006756 [kJ/mol]
      Disp22 (T)                   -0.22533168 [mEh]      -0.14139776 [kcal/mol]      -0.59160823 [kJ/mol]
      Est. Disp22 (T)              -0.25929945 [mEh]      -0.16271286 [kcal/mol]      -0.68079060 [kJ/mol]
      Exch-Disp20                   0.18002260 [mEh]       0.11296589 [kcal/mol]       0.47264927 [kJ/mol]

  Total HF                         -0.80427584 [mEh]      -0.50469071 [kcal/mol]      -2.11162592 [kJ/mol]
  Total SAPT0                      -2.26338443 [mEh]      -1.42029517 [kcal/mol]      -5.94251499 [kJ/mol]
  Total SAPT2                      -2.06340055 [mEh]      -1.29480339 [kcal/mol]      -5.41745740 [kJ/mol]
  Total SAPT2+                     -2.24984809 [mEh]      -1.41180099 [kcal/mol]      -5.90697535 [kJ/mol]

  Special recipe for scaled SAPT0 (see Manual):
    Electrostatics sSAPT0          -2.00617194 [mEh]      -1.25889190 [kcal/mol]      -5.26720371 [kJ/mol]
    Exchange sSAPT0                 1.76700929 [mEh]       1.10881507 [kcal/mol]       4.63928226 [kJ/mol]
    Induction sSAPT0               -0.56384636 [mEh]      -0.35381893 [kcal/mol]      -1.48037842 [kJ/mol]
    Dispersion sSAPT0              -1.45820051 [mEh]      -0.91503463 [kcal/mol]      -3.82850490 [kJ/mol]
  Total sSAPT0                     -2.26120951 [mEh]      -1.41893039 [kcal/mol]      -5.93680476 [kJ/mol]
  --------------------------------------------------------------------------------------------------------

*** Psi4 exiting successfully. Buy a developer a beer!
