                               Psi4 1.4a2.dev224

  ==> Input File <==

--------------------------------------------------------------------------
#Generated by lconvert.py for sapt job

memory 50 GB

molecule  {
0 1
  C      -1.259210    0.661370   -0.001290
  C      -1.813830   -0.550850    0.000430
  H      -1.873310    1.551250   -0.002520
  H      -0.184860    0.787060   -0.002030
  H      -1.204800   -1.444290    0.003160
  H      -2.886280   -0.685600    0.000960
--
0 1
  N       1.803040   -0.003580   -0.002440
  H       2.693850    0.475680   -0.032150
  H       1.824890   -0.569710    0.836150
  H       1.810810   -0.653880   -0.777910
units angstrom
no_reorient
symmetry c1
}

set {
scf_type DF
basis aug-cc-pvtz
freeze_core True
guess SAD
}
energy('sapt2+')
--------------------------------------------------------------------------

  //              Dimer HF             //
    Molecular point group: c1
  Charge       = 0
  Multiplicity = 1
  Basis Set: AUG-CC-PVTZ
    Blend: AUG-CC-PVTZ
  Basis Set: (AUG-CC-PVTZ AUX)
    Blend: AUG-CC-PVTZ-JKFIT
  @DF-RHF Final Energy:  -134.28083611093817
    Total Energy =                       -134.2808361109381394
  //            Monomer A HF           //
    Molecular point group: c1
  Multiplicity = 1
  Basis Set: AUG-CC-PVTZ
    Blend: AUG-CC-PVTZ
  Basis Set: (AUG-CC-PVTZ AUX)
    Blend: AUG-CC-PVTZ-JKFIT
  @DF-RHF Final Energy:   -78.06467067622923
    Total Energy =                        -78.0646706762292268
  //            Monomer B HF           //
    Molecular point group: c1

    Geometry (in Angstrom), charge = 0, multiplicity = 1:

       Center              X                  Y                   Z               Mass
    ------------   -----------------  -----------------  -----------------  -----------------
      Gh(C)          -1.005166214304     0.645115396619    -0.000876604541    12.000000000000
      Gh(C)          -1.559786214304    -0.567104603381     0.000843395459    12.000000000000
      Gh(H)          -1.619266214304     1.534995396619    -0.002106604541     1.007825032230
      Gh(H)           0.069183785696     0.770805396619    -0.001616604541     1.007825032230
      Gh(H)          -0.950756214304    -1.460544603381     0.003573395459     1.007825032230
      Gh(H)          -2.632236214304    -0.701854603381     0.001373395459     1.007825032230
         N            2.057083785696    -0.019834603381    -0.002026604541    14.003074004430
         H            2.947893785696     0.459425396619    -0.031736604541     1.007825032230
         H            2.078933785696    -0.585964603381     0.836563395459     1.007825032230
         H            2.064853785696    -0.670134603381    -0.777496604541     1.007825032230

  Charge       = 0
  Multiplicity = 1
  Basis Set: AUG-CC-PVTZ
    Blend: AUG-CC-PVTZ
  Basis Set: (AUG-CC-PVTZ AUX)
    Blend: AUG-CC-PVTZ-JKFIT

    Orbital Energies [Eh]
    ---------------------

    Doubly Occupied:

       1A    -15.542286     2A     -1.144070     3A     -0.627935
       4A     -0.627095     5A     -0.432015

  @DF-RHF Final Energy:   -56.22024355889690

   => Energetics <=

    Nuclear Repulsion Energy =             11.9634893564863649
    One-Electron Energy =                 -99.6206610120846392
    Two-Electron Energy =                  31.4369280967013793
    Total Energy =                        -56.2202435588968967

  Dipole Moment: [D]
     X:     1.2929      Y:    -1.0370      Z:     0.0451     Total:     1.6580

    SAPT Results
  --------------------------------------------------------------------------------------------------------
    Electrostatics                 -9.09787327 [mEh]      -5.70900167 [kcal/mol]     -23.88646298 [kJ/mol]
      Elst10,r                     -8.77480950 [mEh]      -5.50627609 [kcal/mol]     -23.03825918 [kJ/mol]
      Elst12,r                     -0.32306377 [mEh]      -0.20272557 [kcal/mol]      -0.84820380 [kJ/mol]

    Exchange                       17.23935593 [mEh]      10.81785917 [kcal/mol]      45.26192276 [kJ/mol]
      Exch10                       16.18366348 [mEh]      10.15540216 [kcal/mol]      42.49020262 [kJ/mol]
      Exch10(S^2)                  15.98033423 [mEh]      10.02781112 [kcal/mol]      41.95636174 [kJ/mol]
      Exch11(S^2)                   0.29203264 [mEh]       0.18325325 [kcal/mol]       0.76673160 [kJ/mol]
      Exch12(S^2)                   0.76365981 [mEh]       0.47920376 [kcal/mol]       2.00498854 [kJ/mol]

    Induction                      -3.45187508 [mEh]      -2.16608432 [kcal/mol]      -9.06289677 [kJ/mol]
      Ind20,r                      -4.88005112 [mEh]      -3.06227831 [kcal/mol]     -12.81257244 [kJ/mol]
      Ind22                        -0.37062758 [mEh]      -0.23257232 [kcal/mol]      -0.97308257 [kJ/mol]
      Exch-Ind20,r                  3.28493179 [mEh]       2.06132582 [kcal/mol]       8.62458723 [kJ/mol]
      Exch-Ind22                    0.24948229 [mEh]       0.15655250 [kcal/mol]       0.65501566 [kJ/mol]
      delta HF,r (2)               -1.73561046 [mEh]      -1.08911201 [kcal/mol]      -4.55684465 [kJ/mol]

    Dispersion                     -5.54969502 [mEh]      -3.48248620 [kcal/mol]     -14.57072228 [kJ/mol]
      Disp20                       -6.30701874 [mEh]      -3.95771401 [kcal/mol]     -16.55907542 [kJ/mol]
      Disp21                        0.09819725 [mEh]       0.06161970 [kcal/mol]       0.25781683 [kJ/mol]
      Disp22 (SDQ)                  0.31226012 [mEh]       0.19594618 [kcal/mol]       0.81983883 [kJ/mol]
      Disp22 (T)                   -0.78013088 [mEh]      -0.48953952 [kcal/mol]      -2.04823334 [kJ/mol]
      Est. Disp22 (T)              -0.90728353 [mEh]      -0.56932901 [kcal/mol]      -2.38207257 [kJ/mol]
      Exch-Disp20                   1.25414988 [mEh]       0.78699093 [kcal/mol]       3.29277005 [kJ/mol]

  Total HF                          4.07812419 [mEh]       2.55906156 [kcal/mol]      10.70711358 [kJ/mol]
  Total SAPT0                      -0.97474467 [mEh]      -0.61166152 [kcal/mol]      -2.55919179 [kJ/mol]
  Total SAPT2                      -0.36326128 [mEh]      -0.22794990 [kcal/mol]      -0.95374236 [kJ/mol]
  Total SAPT2+                     -0.86008744 [mEh]      -0.53971302 [kcal/mol]      -2.25815927 [kJ/mol]

  Special recipe for scaled SAPT0 (see Manual):
    Electrostatics sSAPT0          -8.77480950 [mEh]      -5.50627609 [kcal/mol]     -23.03825918 [kJ/mol]
    Exchange sSAPT0                16.18366348 [mEh]      10.15540216 [kcal/mol]      42.49020262 [kJ/mol]
    Induction sSAPT0               -3.20373797 [mEh]      -2.01037593 [kcal/mol]      -8.41141288 [kJ/mol]
    Dispersion sSAPT0              -5.00438482 [mEh]      -3.14029889 [kcal/mol]     -13.13901054 [kJ/mol]
  Total sSAPT0                     -0.79926881 [mEh]      -0.50154875 [kcal/mol]      -2.09847998 [kJ/mol]
  --------------------------------------------------------------------------------------------------------

*** Psi4 exiting successfully. Buy a developer a beer!
