                               Psi4 1.4a2.dev224

  ==> Input File <==

--------------------------------------------------------------------------
#Generated by lconvert.py for sapt job

memory 50 GB

molecule  {
0 1
  C      -1.259210    0.661370   -0.001290
  C      -1.813830   -0.550850    0.000430
  H      -1.873310    1.551250   -0.002520
  H      -0.184860    0.787060   -0.002030
  H      -1.204800   -1.444290    0.003160
  H      -2.886280   -0.685600    0.000960
--
0 1
  N       2.366710   -0.013440   -0.002780
  H       3.257520    0.465820   -0.032490
  H       2.388560   -0.579570    0.835800
  H       2.374480   -0.663730   -0.778260
units angstrom
no_reorient
symmetry c1
}

set {
scf_type DF
basis aug-cc-pvtz
freeze_core True
guess SAD
}
energy('sapt2+')
--------------------------------------------------------------------------

  //              Dimer HF             //
    Molecular point group: c1
  Charge       = 0
  Multiplicity = 1
  Basis Set: AUG-CC-PVTZ
    Blend: AUG-CC-PVTZ
  Basis Set: (AUG-CC-PVTZ AUX)
    Blend: AUG-CC-PVTZ-JKFIT
  @DF-RHF Final Energy:  -134.28549196797863
    Total Energy =                       -134.2854919679786008
  //            Monomer A HF           //
    Molecular point group: c1
  Multiplicity = 1
  Basis Set: AUG-CC-PVTZ
    Blend: AUG-CC-PVTZ
  Basis Set: (AUG-CC-PVTZ AUX)
    Blend: AUG-CC-PVTZ-JKFIT
  @DF-RHF Final Energy:   -78.06465983641409
    Total Energy =                        -78.0646598364140942
  //            Monomer B HF           //
    Molecular point group: c1

    Geometry (in Angstrom), charge = 0, multiplicity = 1:

       Center              X                  Y                   Z               Mass
    ------------   -----------------  -----------------  -----------------  -----------------
      Gh(C)          -1.218166947712     0.648841089229    -0.000747677322    12.000000000000
      Gh(C)          -1.772786947712    -0.563378910771     0.000972322678    12.000000000000
      Gh(H)          -1.832266947712     1.538721089229    -0.001977677322     1.007825032230
      Gh(H)          -0.143816947712     0.774531089229    -0.001487677322     1.007825032230
      Gh(H)          -1.163756947712    -1.456818910771     0.003702322678     1.007825032230
      Gh(H)          -2.845236947712    -0.698128910771     0.001502322678     1.007825032230
         N            2.407753052288    -0.025968910771    -0.002237677322    14.003074004430
         H            3.298563052288     0.453291089229    -0.031947677322     1.007825032230
         H            2.429603052288    -0.592098910771     0.836342322678     1.007825032230
         H            2.415523052288    -0.676258910771    -0.777717677322     1.007825032230

  Charge       = 0
  Multiplicity = 1
  Basis Set: AUG-CC-PVTZ
    Blend: AUG-CC-PVTZ
  Basis Set: (AUG-CC-PVTZ AUX)
    Blend: AUG-CC-PVTZ-JKFIT

    Orbital Energies [Eh]
    ---------------------

    Doubly Occupied:

       1A    -15.542304     2A     -1.144078     3A     -0.627944
       4A     -0.627105     5A     -0.432016

  @DF-RHF Final Energy:   -56.22022599788377

   => Energetics <=

    Nuclear Repulsion Energy =             11.9635165335652225
    One-Electron Energy =                 -99.6205894060662160
    Two-Electron Energy =                  31.4368468746172169
    Total Energy =                        -56.2202259978837731

  Dipole Moment: [D]
     X:     1.2928      Y:    -1.0370      Z:     0.0451     Total:     1.6579

    SAPT Results
  --------------------------------------------------------------------------------------------------------
    Electrostatics                 -2.59830724 [mEh]      -1.63046241 [kcal/mol]      -6.82185471 [kJ/mol]
      Elst10,r                     -2.58088635 [mEh]      -1.61953063 [kcal/mol]      -6.77611617 [kJ/mol]
      Elst12,r                     -0.01742089 [mEh]      -0.01093177 [kcal/mol]      -0.04573854 [kJ/mol]

    Exchange                        3.06069249 [mEh]       1.92061353 [kcal/mol]       8.03584703 [kJ/mol]
      Exch10                        2.75949968 [mEh]       1.73161219 [kcal/mol]       7.24506540 [kJ/mol]
      Exch10(S^2)                   2.75254303 [mEh]       1.72724683 [kcal/mol]       7.22680073 [kJ/mol]
      Exch11(S^2)                   0.02736394 [mEh]       0.01717113 [kcal/mol]       0.07184401 [kJ/mol]
      Exch12(S^2)                   0.27382887 [mEh]       0.17183021 [kcal/mol]       0.71893761 [kJ/mol]

    Induction                      -0.81957380 [mEh]      -0.51429033 [kcal/mol]      -2.15179073 [kJ/mol]
      Ind20,r                      -0.92114026 [mEh]      -0.57802424 [kcal/mol]      -2.41845342 [kJ/mol]
      Ind22                        -0.06376024 [mEh]      -0.04001016 [kcal/mol]      -0.16740249 [kJ/mol]
      Exch-Ind20,r                  0.41799976 [mEh]       0.26229881 [kcal/mol]       1.09745822 [kJ/mol]
      Exch-Ind22                    0.02893345 [mEh]       0.01815601 [kcal/mol]       0.07596476 [kJ/mol]
      delta HF,r (2)               -0.28160652 [mEh]      -0.17671076 [kcal/mol]      -0.73935780 [kJ/mol]

    Dispersion                     -2.08065423 [mEh]      -1.30563024 [kcal/mol]      -5.46275693 [kJ/mol]
      Disp20                       -2.11628321 [mEh]      -1.32798776 [kcal/mol]      -5.55630080 [kJ/mol]
      Disp21                       -0.00686581 [mEh]      -0.00430836 [kcal/mol]      -0.01802617 [kJ/mol]
      Disp22 (SDQ)                  0.10346909 [mEh]       0.06492783 [kcal/mol]       0.27165806 [kJ/mol]
      Disp22 (T)                   -0.28364922 [mEh]      -0.17799257 [kcal/mol]      -0.74472092 [kJ/mol]
      Est. Disp22 (T)              -0.32939786 [mEh]      -0.20670028 [kcal/mol]      -0.86483397 [kJ/mol]
      Exch-Disp20                   0.26842355 [mEh]       0.16843832 [kcal/mol]       0.70474595 [kJ/mol]

  Total HF                         -0.60613368 [mEh]      -0.38035463 [kcal/mol]      -1.59140376 [kJ/mol]
  Total SAPT0                      -2.45399333 [mEh]      -1.53990407 [kcal/mol]      -6.44295861 [kJ/mol]
  Total SAPT2                      -2.20504820 [mEh]      -1.38368864 [kcal/mol]      -5.78935326 [kJ/mol]
  Total SAPT2+                     -2.43784278 [mEh]      -1.52976944 [kcal/mol]      -6.40055534 [kJ/mol]

  Special recipe for scaled SAPT0 (see Manual):
    Electrostatics sSAPT0          -2.58088635 [mEh]      -1.61953063 [kcal/mol]      -6.77611617 [kJ/mol]
    Exchange sSAPT0                 2.75949968 [mEh]       1.73161219 [kcal/mol]       7.24506540 [kJ/mol]
    Induction sSAPT0               -0.78156970 [mEh]      -0.49044239 [kcal/mol]      -2.05201096 [kJ/mol]
    Dispersion sSAPT0              -1.84581930 [mEh]      -1.15826910 [kcal/mol]      -4.84619791 [kJ/mol]
  Total sSAPT0                     -2.44877567 [mEh]      -1.53662993 [kcal/mol]      -6.42925963 [kJ/mol]
  --------------------------------------------------------------------------------------------------------

*** Psi4 exiting successfully. Buy a developer a beer!
