                               Psi4 1.4a2.dev224

  ==> Input File <==

--------------------------------------------------------------------------
#Generated by lconvert.py for sapt job

memory 50 GB

molecule  {
0 1
  C      -1.259210    0.661370   -0.001290
  C      -1.813830   -0.550850    0.000430
  H      -1.873310    1.551250   -0.002520
  H      -0.184860    0.787060   -0.002030
  H      -1.204800   -1.444290    0.003160
  H      -2.886280   -0.685600    0.000960
--
0 1
  N       2.644350   -0.018290   -0.002950
  H       3.535160    0.460970   -0.032660
  H       2.666200   -0.584420    0.835630
  H       2.652120   -0.668580   -0.778430
units angstrom
no_reorient
symmetry c1
}

set {
scf_type DF
basis aug-cc-pvtz
freeze_core True
guess SAD
}
energy('sapt2+')
--------------------------------------------------------------------------

  //              Dimer HF             //
    Molecular point group: c1
  Charge       = 0
  Multiplicity = 1
  Basis Set: AUG-CC-PVTZ
    Blend: AUG-CC-PVTZ
  Basis Set: (AUG-CC-PVTZ AUX)
    Blend: AUG-CC-PVTZ-JKFIT
  @DF-RHF Final Energy:  -134.28575420787462
    Total Energy =                       -134.2857542078746178
  //            Monomer A HF           //
    Molecular point group: c1
  Multiplicity = 1
  Basis Set: AUG-CC-PVTZ
    Blend: AUG-CC-PVTZ
  Basis Set: (AUG-CC-PVTZ AUX)
    Blend: AUG-CC-PVTZ-JKFIT
  @DF-RHF Final Energy:   -78.06465668855795
    Total Energy =                        -78.0646566885579460
  //            Monomer B HF           //
    Molecular point group: c1

    Geometry (in Angstrom), charge = 0, multiplicity = 1:

       Center              X                  Y                   Z               Mass
    ------------   -----------------  -----------------  -----------------  -----------------
      Gh(C)          -1.323082099528     0.650673816813    -0.000683437387    12.000000000000
      Gh(C)          -1.877702099528    -0.561546183187     0.001036562613    12.000000000000
      Gh(H)          -1.937182099528     1.540553816813    -0.001913437387     1.007825032230
      Gh(H)          -0.248732099528     0.776363816813    -0.001423437387     1.007825032230
      Gh(H)          -1.268672099528    -1.454986183187     0.003766562613     1.007825032230
      Gh(H)          -2.950152099528    -0.696296183187     0.001566562613     1.007825032230
         N            2.580477900472    -0.028986183187    -0.002343437387    14.003074004430
         H            3.471287900472     0.450273816813    -0.032053437387     1.007825032230
         H            2.602327900472    -0.595116183187     0.836236562613     1.007825032230
         H            2.588247900472    -0.679276183187    -0.777823437387     1.007825032230

  Charge       = 0
  Multiplicity = 1
  Basis Set: AUG-CC-PVTZ
    Blend: AUG-CC-PVTZ
  Basis Set: (AUG-CC-PVTZ AUX)
    Blend: AUG-CC-PVTZ-JKFIT

    Orbital Energies [Eh]
    ---------------------

    Doubly Occupied:

       1A    -15.542312     2A     -1.144081     3A     -0.627948
       4A     -0.627108     5A     -0.432017

  @DF-RHF Final Energy:   -56.22022235862947

   => Energetics <=

    Nuclear Repulsion Energy =             11.9635165335652243
    One-Electron Energy =                 -99.6205433081564280
    Two-Electron Energy =                  31.4368044159617313
    Total Energy =                        -56.2202223586294707

  Dipole Moment: [D]
     X:     1.2929      Y:    -1.0370      Z:     0.0451     Total:     1.6580

    SAPT Results
  --------------------------------------------------------------------------------------------------------
    Electrostatics                 -1.56228020 [mEh]      -0.98034563 [kcal/mol]      -4.10176610 [kJ/mol]
      Elst10,r                     -1.59227528 [mEh]      -0.99916782 [kcal/mol]      -4.18051817 [kJ/mol]
      Elst12,r                      0.02999508 [mEh]       0.01882220 [kcal/mol]       0.07875207 [kJ/mol]

    Exchange                        1.27915406 [mEh]       0.80268129 [kcal/mol]       3.35841851 [kJ/mol]
      Exch10                        1.13010452 [mEh]       0.70915130 [kcal/mol]       2.96708902 [kJ/mol]
      Exch10(S^2)                   1.12884825 [mEh]       0.70836297 [kcal/mol]       2.96379066 [kJ/mol]
      Exch11(S^2)                   0.00531868 [mEh]       0.00333752 [kcal/mol]       0.01396420 [kJ/mol]
      Exch12(S^2)                   0.14373085 [mEh]       0.09019247 [kcal/mol]       0.37736529 [kJ/mol]

    Induction                      -0.42965464 [mEh]      -0.26961236 [kcal/mol]      -1.12805810 [kJ/mol]
      Ind20,r                      -0.45438126 [mEh]      -0.28512855 [kcal/mol]      -1.19297783 [kJ/mol]
      Ind22                        -0.02497964 [mEh]      -0.01567496 [kcal/mol]      -0.06558402 [kJ/mol]
      Exch-Ind20,r                  0.15124908 [mEh]       0.09491023 [kcal/mol]       0.39710441 [kJ/mol]
      Exch-Ind22                    0.00831493 [mEh]       0.00521770 [kcal/mol]       0.02183084 [kJ/mol]
      delta HF,r (2)               -0.10985775 [mEh]      -0.06893678 [kcal/mol]      -0.28843149 [kJ/mol]

    Dispersion                     -1.30666235 [mEh]      -0.81994301 [kcal/mol]      -3.43064153 [kJ/mol]
      Disp20                       -1.27897563 [mEh]      -0.80256932 [kcal/mol]      -3.35795005 [kJ/mol]
      Disp21                       -0.00547414 [mEh]      -0.00343507 [kcal/mol]      -0.01437234 [kJ/mol]
      Disp22 (SDQ)                  0.06254056 [mEh]       0.03924479 [kcal/mol]       0.16420022 [kJ/mol]
      Disp22 (T)                   -0.17744243 [mEh]      -0.11134681 [kcal/mol]      -0.46587504 [kJ/mol]
      Est. Disp22 (T)              -0.20500677 [mEh]      -0.12864369 [kcal/mol]      -0.53824520 [kJ/mol]
      Exch-Disp20                   0.12025362 [mEh]       0.07546029 [kcal/mol]       0.31572583 [kJ/mol]

  Total HF                         -0.87516069 [mEh]      -0.54917162 [kcal/mol]      -2.29773407 [kJ/mol]
  Total SAPT0                      -2.03388270 [mEh]      -1.27628066 [kcal/mol]      -5.33995828 [kJ/mol]
  Total SAPT2                      -1.87150279 [mEh]      -1.17438573 [kcal/mol]      -4.91362991 [kJ/mol]
  Total SAPT2+                     -2.01944314 [mEh]      -1.26721970 [kcal/mol]      -5.30204722 [kJ/mol]

  Special recipe for scaled SAPT0 (see Manual):
    Electrostatics sSAPT0          -1.59227528 [mEh]      -0.99916782 [kcal/mol]      -4.18051817 [kJ/mol]
    Exchange sSAPT0                 1.13010452 [mEh]       0.70915130 [kcal/mol]       2.96708902 [kJ/mol]
    Induction sSAPT0               -0.41248440 [mEh]      -0.25883787 [kcal/mol]      -1.08297764 [kJ/mol]
    Dispersion sSAPT0              -1.15832008 [mEh]      -0.72685682 [kcal/mol]      -3.04116894 [kJ/mol]
  Total sSAPT0                     -2.03297523 [mEh]      -1.27571122 [kcal/mol]      -5.33757574 [kJ/mol]
  --------------------------------------------------------------------------------------------------------

*** Psi4 exiting successfully. Buy a developer a beer!
