                               Psi4 1.4a2.dev224

  ==> Input File <==

--------------------------------------------------------------------------
#Generated by lconvert.py for sapt job

memory 50 GB

molecule  {
0 1
  C      -1.259210    0.661370   -0.001290
  C      -1.813830   -0.550850    0.000430
  H      -1.873310    1.551250   -0.002520
  H      -0.184860    0.787060   -0.002030
  H      -1.204800   -1.444290    0.003160
  H      -2.886280   -0.685600    0.000960
--
0 1
  N       1.514280    0.001470   -0.002260
  H       2.405090    0.480720   -0.031970
  H       1.536130   -0.564660    0.836330
  H       1.522050   -0.648830   -0.777730
units angstrom
no_reorient
symmetry c1
}

set {
scf_type DF
basis aug-cc-pvtz
freeze_core True
guess SAD
}
energy('sapt2+')
--------------------------------------------------------------------------

  //              Dimer HF             //
    Molecular point group: c1
  Charge       = 0
  Multiplicity = 1
  Basis Set: AUG-CC-PVTZ
    Blend: AUG-CC-PVTZ
  Basis Set: (AUG-CC-PVTZ AUX)
    Blend: AUG-CC-PVTZ-JKFIT
  @DF-RHF Final Energy:  -134.27153877073263
    Total Energy =                       -134.2715387707326329
  //            Monomer A HF           //
    Molecular point group: c1
  Multiplicity = 1
  Basis Set: AUG-CC-PVTZ
    Blend: AUG-CC-PVTZ
  Basis Set: (AUG-CC-PVTZ AUX)
    Blend: AUG-CC-PVTZ-JKFIT
  @DF-RHF Final Energy:   -78.06467907953837
    Total Energy =                        -78.0646790795383652
  //            Monomer B HF           //
    Molecular point group: c1

    Geometry (in Angstrom), charge = 0, multiplicity = 1:

       Center              X                  Y                   Z               Mass
    ------------   -----------------  -----------------  -----------------  -----------------
      Gh(C)          -0.896049014915     0.643207316314    -0.000944623297    12.000000000000
      Gh(C)          -1.450669014915    -0.569012683686     0.000775376703    12.000000000000
      Gh(H)          -1.510149014915     1.533087316314    -0.002174623297     1.007825032230
      Gh(H)           0.178300985085     0.768897316314    -0.001684623297     1.007825032230
      Gh(H)          -0.841639014915    -1.462452683686     0.003505376703     1.007825032230
      Gh(H)          -2.523119014915    -0.703762683686     0.001305376703     1.007825032230
         N            1.877440985085    -0.016692683686    -0.001914623297    14.003074004430
         H            2.768250985085     0.462557316314    -0.031624623297     1.007825032230
         H            1.899290985085    -0.582822683686     0.836675376703     1.007825032230
         H            1.885210985085    -0.666992683686    -0.777384623297     1.007825032230

  Charge       = 0
  Multiplicity = 1
  Basis Set: AUG-CC-PVTZ
    Blend: AUG-CC-PVTZ
  Basis Set: (AUG-CC-PVTZ AUX)
    Blend: AUG-CC-PVTZ-JKFIT

    Orbital Energies [Eh]
    ---------------------

    Doubly Occupied:

       1A    -15.542268     2A     -1.144068     3A     -0.627931
       4A     -0.627091     5A     -0.432016

  @DF-RHF Final Energy:   -56.22026276867354

   => Energetics <=

    Nuclear Repulsion Energy =             11.9635092202327957
    One-Electron Energy =                 -99.6207930076363510
    Two-Electron Energy =                  31.4370210187300145
    Total Energy =                        -56.2202627686735426

  Dipole Moment: [D]
     X:     1.2930      Y:    -1.0370      Z:     0.0451     Total:     1.6581

    SAPT Results
  --------------------------------------------------------------------------------------------------------
    Electrostatics                -18.72932717 [mEh]     -11.75283024 [kcal/mol]     -49.17384171 [kJ/mol]
      Elst10,r                    -18.09699664 [mEh]     -11.35603684 [kcal/mol]     -47.51365813 [kJ/mol]
      Elst12,r                     -0.63233053 [mEh]      -0.39679340 [kcal/mol]      -1.66018358 [kJ/mol]

    Exchange                       40.51131740 [mEh]      25.42123546 [kcal/mol]     106.36244918 [kJ/mol]
      Exch10                       38.81830265 [mEh]      24.35885267 [kcal/mol]     101.91743957 [kJ/mol]
      Exch10(S^2)                  37.75539892 [mEh]      23.69187051 [kcal/mol]      99.12678619 [kJ/mol]
      Exch11(S^2)                   0.77794494 [mEh]       0.48816782 [kcal/mol]       2.04249416 [kJ/mol]
      Exch12(S^2)                   0.91506981 [mEh]       0.57421497 [kcal/mol]       2.40251545 [kJ/mol]

    Induction                      -7.54934252 [mEh]      -4.73728396 [kcal/mol]     -19.82079607 [kJ/mol]
      Ind20,r                     -12.62438655 [mEh]      -7.92192216 [kcal/mol]     -33.14532233 [kJ/mol]
      Ind22                        -0.85481527 [mEh]      -0.53640468 [kcal/mol]      -2.24431720 [kJ/mol]
      Exch-Ind20,r                  9.21116679 [mEh]       5.78009443 [kcal/mol]      24.18391508 [kJ/mol]
      Exch-Ind22                    0.62370128 [mEh]       0.39137846 [kcal/mol]       1.63752749 [kJ/mol]
      delta HF,r (2)               -3.90500877 [mEh]      -2.45043000 [kcal/mol]     -10.25259911 [kJ/mol]

    Dispersion                     -9.34428343 [mEh]      -5.86362638 [kcal/mol]     -24.53341276 [kJ/mol]
      Disp20                      -11.31525179 [mEh]      -7.10042770 [kcal/mol]     -29.70818948 [kJ/mol]
      Disp21                        0.38899780 [mEh]       0.24409981 [kcal/mol]       1.02131359 [kJ/mol]
      Disp22 (SDQ)                  0.55319159 [mEh]       0.34713296 [kcal/mol]       1.45240431 [kJ/mol]
      Disp22 (T)                   -1.33376571 [mEh]      -0.83695062 [kcal/mol]      -3.50180140 [kJ/mol]
      Est. Disp22 (T)              -1.53261889 [mEh]      -0.96173287 [kcal/mol]      -4.02389033 [kJ/mol]
      Exch-Disp20                   2.56139786 [mEh]       1.60730142 [kcal/mol]       6.72494915 [kJ/mol]

  Total HF                         13.40307748 [mEh]       8.41055810 [kcal/mol]      35.18977507 [kJ/mol]
  Total SAPT0                       4.64922355 [mEh]       2.91743182 [kcal/mol]      12.20653474 [kJ/mol]
  Total SAPT2                       5.47879377 [mEh]       3.43799500 [kcal/mol]      14.38457107 [kJ/mol]
  Total SAPT2+                      4.88836428 [mEh]       3.06749490 [kcal/mol]      12.83439864 [kJ/mol]

  Special recipe for scaled SAPT0 (see Manual):
    Electrostatics sSAPT0         -18.09699664 [mEh]     -11.35603684 [kcal/mol]     -47.51365813 [kJ/mol]
    Exchange sSAPT0                38.81830265 [mEh]      24.35885267 [kcal/mol]     101.91743957 [kJ/mol]
    Induction sSAPT0               -6.51817356 [mEh]      -4.09021566 [kcal/mol]     -17.11346233 [kJ/mol]
    Dispersion sSAPT0              -8.53137841 [mEh]      -5.35352078 [kcal/mol]     -22.39913094 [kJ/mol]
  Total sSAPT0                      5.67175404 [mEh]       3.55907939 [kcal/mol]      14.89118817 [kJ/mol]
  --------------------------------------------------------------------------------------------------------

*** Psi4 exiting successfully. Buy a developer a beer!
